material_id,pretty_formula,band_gap
mp-6095,Mg2PO4F,5.1652
mp-6137,Mg4P6SN12,5.105700000000001
mp-622195,CsSO3F,5.164499999999999
mp-6246,Ca2CO3F2,5.1654
mp-625148,H3ClO5,5.1561
mp-625318,Al(HO)3,5.0579
mp-625823,Be(HO)2,5.0669
mp-626193,Sc(HO)3,5.0691999999999995
mp-626431,Al(HO)3,5.0535
mp-626496,Al(HO)3,5.0582
mp-627632,Si4H2O9,5.1536
mp-627944,Si4H2O9,5.1713000000000005
mp-632684,NaPH3NO3,5.1089
mp-642216,MgSiO3,5.048899999999999
mp-642648,KP(HO)2,5.1394
mp-642661,BaH2Cl2O,5.053
mp-642844,BaH5BrO3,5.125299999999999
mp-643365,KH3C2O3,5.179
mp-643655,LiAl2H6ClO6,5.1556
mp-643791,RbP(HO2)2,5.1052
mp-644285,KAlH2CO5,5.0949
mp-644506,NaAlH2CO5,5.093400000000001
mp-6596,MgAlPO5,5.0452
mp-6597,CsLiSO4,5.1697999999999995
mp-6648,KLiB4O7,5.0827
mp-6655,Y2Be2SiO7,5.1691
mp-667288,K2P4PbO12,5.1026
mp-673658,H2O,5.0777
mp-675179,Ba3Bi2F12,5.1072999999999995
mp-684609,HCl,5.1812000000000005
mp-685136,BiF3,5.0814
mp-690771,H8CS(NO)4,5.1396
mp-695935,Na6ZnH4(S2O9)2,5.0922
mp-695955,P3H11N4O9,5.1567
mp-695982,BaNaP3(HO2)6,5.144299999999999
mp-695985,NiH12SO10,5.0607
mp-696075,Ca2H2S2O9,5.1689
mp-696078,K3ZrH2S(OF)5,5.103400000000001
mp-696416,NaSi3BO8,5.142
mp-696490,Ca2H2S2O7,5.082700000000001
mp-696528,KPH3NO3,5.0803
mp-696683,K3SnHF8,5.181699999999999
mp-696762,TlP2H5O8,5.1056
mp-697027,NaSi2(HO2)3,5.0695
mp-697078,Cs2SiP4(HO7)2,5.1811
mp-697168,MgH6(NCl)2,5.1502
mp-697367,NaP(HO2)2,5.1003
mp-697721,H8C2NCl,5.1537
mp-698160,Al3P2H14(O5F)3,5.1632
mp-698491,NaCa2Al4H8C4ClO20,5.1723
mp-699266,K2MgH8(SO6)2,5.1762999999999995
mp-699451,Ca2B3(HO)13,5.0536
mp-7013,Ho2Be2SiO7,5.1006
mp-705854,CaP3H10NO12,5.119
mp-705932,Sr10P6ClO24F,5.0933
mp-706335,Mg3P4H28(NO12)2,5.0726
mp-706339,MgB3H15O13,5.1454
mp-706366,K6H6S6N2O23,5.0731
mp-706426,Ca2P2H4O9,5.0708
mp-706489,NaB2HO4,5.1261
mp-706912,K2HS2NO6,5.0781
mp-707020,H10S(NO)4,5.1426
mp-707023,H6CN3Cl,5.107
mp-707027,CaScSi3HO9,5.1182
mp-707068,KH8O4F,5.1548
mp-707151,Na2B4H20O17,5.097099999999999
mp-707200,Na4P4H2O13,5.1224
mp-707219,K2Zr2ZnH12(OF2)6,5.1135
mp-707908,K3P3H4O11,5.1705
mp-707938,MgH18C4SN8O9,5.1557
mp-707941,Na3H(SO4)2,5.1609
mp-720255,Sr20P12Cl(O16F)3,5.1640999999999995
mp-720334,Na2P2H14O13,5.1678
mp-720554,LiPH4NO3F,5.104100000000001
mp-720719,Ca2Y2Si4H2CO16,5.1278
mp-720765,H3SNO4,5.096
mp-721012,Na13Ca7S12(ClO16)3,5.075200000000001
mp-721047,CaH8(ClO2)2,5.1469000000000005
mp-721158,Mg2P2H12O13,5.0738
mp-721217,K2P2H2O7,5.0961
mp-721299,H13S2N3O8,5.1251
mp-721300,Ca2B5H2ClO10,5.0985
mp-721347,CaPH4O5F,5.1174
mp-721426,NaPH7O6,5.114
mp-721562,K2P3H5O11,5.0485
mp-721586,BaSi2(H3O4)2,5.072
mp-722342,NaCa2B9(H2O5)4,5.1407
mp-722369,Na3B5(HO5)2,5.0736
mp-722860,Na2MgH4(SO4)2,5.1187
mp-723426,NaLiP2(H4O5)2,5.129099999999999
mp-730945,KAl2P2H5O11,5.087899999999999
mp-733998,TbH12S2NO12,5.1568000000000005
mp-738624,SmP2H9O11,5.0600000000000005
mp-740736,NaP3H10(NO5)2,5.0552
mp-752728,Rb2S2O7,5.0594
mp-7535,Li5AlO4,5.092
mp-753813,Ca(ClO3)2,5.0529
mp-753852,WOF4,5.0705
mp-754409,HoBO3,5.1552999999999995
mp-754435,LuAlO3,5.0767
mp-755043,Al2Si2O7,5.0535000000000005
mp-755323,DyClO,5.167300000000001
mp-756194,Tm4(B2O5)3,5.064
mp-756214,YAlO3,5.1176
mp-7571,KNbF6,5.1353
mp-757470,K2ZnP4(HO2)8,5.069
mp-757652,H13S2N3O8,5.1189
mp-757666,CaB5H3O10,5.1441
mp-757727,BaB2H2O5,5.1246
mp-758619,KPHO3F,5.1778
mp-758662,Ba2GaP4HO14,5.058599999999999
mp-759818,WOF4,5.040900000000001
mp-759878,RbMgH12(ClO2)3,5.1747
mp-760185,WOF4,5.0623000000000005
mp-760489,PH6NO2,5.0698
mp-766031,NaMgH4SO6F,5.075200000000001
mp-768146,Na2AlPCO7,5.0802
mp-772222,TmClO,5.094099999999999
mp-772843,KSiPCO7,5.168
mp-778001,Tm(ClO4)3,5.075
mp-779413,BaP4O11,5.1479
mp-779491,BaP4O11,5.0699
mp-779723,Ba2P6O17,5.1667000000000005
mp-780393,HoBO3,5.0472
mp-7913,BeSiN2,5.165799999999999
mp-8271,Ba2Ca(BO2)6,5.1325
mp-8333,RbNaSnF6,5.100099999999999
mp-849230,BaP4O11,5.1309000000000005
mp-861906,BaNa2Mg(PO4)2,5.0535
mp-862901,PmF3,5.0991
mp-864891,NaPO3,5.137
mp-867938,SnH6(NF2)2,5.0835
mp-867975,CsB2H5O6,5.0467
mp-9138,RbPO3,5.1031
mp-9144,LiAsF6,5.1212
mp-9467,NaCa9Mg(PO4)7,5.1509
mp-966801,LiCaBO3,5.0761
mp-976349,LuH2ClO2,5.067200000000001
mp-976707,H4CN2O,5.045400000000001
mp-9820,CsAsF6,5.1559
mvc-10394,BaZnBiF7,5.1552
mvc-3488,TaF5,5.126200000000001
mp-1019512,AlPO4,5.3019
mp-1019543,BaCaP2O7,5.3187
mp-1019555,BaNaLi3(BO2)6,5.2185
mp-1019714,CsCa10(PO4)7,5.2036
mp-1019719,CsSi2BO6,5.258900000000001
mp-1019785,K2Si(S2O7)3,5.2762
mp-1019789,K3B(SO4)3,5.2623
mp-1019797,K5B(SO4)4,5.2949
mp-1019802,KAl(PO3)4,5.202
mp-1019806,KMg6P7O24,5.187799999999999
mp-1020109,LiMg3P3O11,5.3167
mp-1020161,Na3Al2(PO4)3,5.2302
mp-1020599,Na5B(SO4)4,5.3015
mp-1020608,SiP2O7,5.2632
mp-1020711,Rb2Si(S2O7)3,5.253500000000001
mp-1078237,NaNiF3,5.3201
mp-10948,SiO2,5.2559
mp-1101475,NaSiPCO7,5.3188
mp-1104386,Li6PClO5,5.276
mp-1111060,KNa2AlF6,5.1973
mp-1111073,Li3YF6,5.3141
mp-11112,Tb(BO2)3,5.1907000000000005
mp-1111489,K3InF6,5.2117
mp-1111671,K2LiInF6,5.3038
mp-1112240,CsK2YF6,5.2531
mp-1112485,Cs2ScTlF6,5.2982
mp-1112613,Cs2LiErCl6,5.1836
mp-1112689,Cs2KTmCl6,5.2585999999999995
mp-1112690,Cs2KYCl6,5.2155
mp-1112760,Cs2KLuCl6,5.270099999999999
mp-1112785,Cs2KDyCl6,5.2392
mp-1112990,Cs2NaDyCl6,5.2998
mp-1112998,Cs2LiTmCl6,5.2584
mp-1113016,Cs2LiInF6,5.2384
mp-1113058,Cs2KErCl6,5.2513
mp-1114353,K2RbNdF6,5.3133
mp-1114419,Rb2LiInF6,5.2699
mp-1114421,Rb2LiLuCl6,5.2683
mp-1114444,Rb2NaLuCl6,5.218999999999999
mp-1114468,Rb2AlTlF6,5.323099999999999
mp-1114566,Rb2LiErCl6,5.192200000000001
mp-1114667,Rb2LiTmCl6,5.2798
mp-1114674,K2RbPrF6,5.2496
mp-1114689,Rb3InF6,5.3003
mp-1176368,Na2P2H12O11F2,5.202
mp-1178350,ErClO,5.1904
mp-1178361,DyClO,5.1946
mp-1179500,ScF3,5.258900000000001
mp-1181812,Ca(BH4)2,5.282
mp-1182737,Cs2Si(S2O7)3,5.269699999999999
mp-1190687,CsLi2Cl3,5.3257
mp-1191012,Ca(BH4)2,5.291399999999999
mp-1191340,Ca(BH4)2,5.2889
mp-1191473,NdP3(HO2)6,5.2138
mp-1192733,CsP(HO)2,5.1837
mp-1193864,Al2PH3O7,5.241099999999999
mp-1194942,Nd2B8O15,5.2867
mp-1194951,YB3(H9N)2,5.319
mp-1195328,H5S2NO7,5.2534
mp-1195458,YB3(H6N)4,5.2267
mp-1195509,Th(PO3)4,5.2359
mp-1195562,RbHS2O7,5.2585999999999995
mp-1195844,Ba3B6O11F2,5.2594
mp-1195896,RbHSO4,5.298
mp-1196025,Rb3Sc2Si4(O2F)5,5.195399999999999
mp-1196351,MgB6H14O17,5.2179
mp-1196362,Si5H15C4NO12,5.2151000000000005
mp-1197046,Li3MgZn5(BH4)15,5.202999999999999
mp-1197097,KPH3O4,5.2441
mp-1197491,BaPO3F,5.2458
mp-1197644,K3InF6,5.3218
mp-1197651,CsP(HO2)2,5.2069
mp-1197708,CaMgB2O5,5.2819
mp-1197995,Na2MgP4(H2O3)6,5.2277
mp-11980,CsNbF6,5.2111
mp-1198095,CsAlH24(SO10)2,5.2934
mp-1198928,KP(HO2)2,5.2254000000000005
mp-1199057,Ba4NaB10Cl(O9F)2,5.3059
mp-1199077,Ba2B6H4O13,5.2289
mp-1199507,SiBH3CNCl3,5.1911
mp-1199646,LiZn2(BH4)5,5.229
mp-1199681,AlSnPH18(C3Cl2)2,5.2635000000000005
mp-1200072,PrP3(H5O7)2,5.324000000000001
mp-1200107,K3HS3O11,5.254300000000001
mp-1200260,SbAsH6(CF4)2,5.194100000000001
mp-1200331,MgB2H4C8(N4O)2,5.3103
mp-1200814,BH12N4F3,5.218299999999999
mp-1200952,KB5(H2O3)4,5.1978
mp-1201098,Sr2B5H3O11,5.197
mp-1201263,CsCa(PO3)3,5.3093
mp-1201353,PrYSi2O7,5.1998
mp-1201400,BaSi(S2O7)3,5.2901
mp-1201564,B6H13CN4,5.259
mp-1201648,LiB(H3N)4,5.2734000000000005
mp-1202100,Al3P3H7CNO13,5.2435
mp-1202176,LiY3Si2(O4F)2,5.222899999999999
mp-1202190,Lu2Si2O7,5.1931
mp-1202308,RbPrH8(SO6)2,5.1991000000000005
mp-1202664,ErH2Cl3O13,5.2237
mp-1203165,MgH8(ClO2)2,5.2704
mp-1203390,NaSmP2H4CO7,5.1921
mp-1203446,Ca5Zr3F22,5.2573
mp-1203517,CsH6C2S2NO4,5.2675
mp-1204240,CaH8(ClO6)2,5.2016
mp-1204788,InH12(NF2)3,5.3241
mp-1204851,K2HS2NO7,5.316700000000001
mp-1205011,SrH6Cl2O11,5.314500000000001
mp-1205148,PrH20S4N5O16,5.289
mp-1205213,SiO2,5.3103
mp-1207104,Cs2KHoCl6,5.2609
mp-1208575,Tb(ClO4)3,5.2322
mp-1208886,SmAl3(BO3)4,5.2517
mp-1209161,RbSr2Cl5,5.208
mp-1209324,RbBePO4,5.2785
mp-1209422,RbAlCl4,5.2193
mp-1211382,KSr2Cl5,5.2384
mp-1211912,KPHO3,5.3139
mp-1212635,H5ClO4,5.2778
mp-1213084,CsSrCl3,5.3136
mp-1213300,CsTmP2O7,5.2085
mp-1213703,Cs3Ca2Cl7,5.1855
mp-1214176,Ca2B5ClO9,5.2728
mp-1214315,Be3Tl2Cd2F12,5.2985
mp-1214543,CaP2H5NO7,5.2103
mp-1214609,Ba3Tm(BO2)9,5.2676
mp-1214634,Ba3Dy(BO2)9,5.189
mp-1214639,Ba3Ho(BO2)9,5.2028
mp-1214718,Ba3Er(BO2)9,5.2264
mp-1214948,AlPbF5,5.2618
mp-1215756,Zr3BiF15,5.2489
mp-1216168,Y5O4F7,5.2822
mp-1218615,Sr3Ca2P3O12F,5.3125
mp-1219293,Si3NCl9,5.2475
mp-1219599,RbBa2Ni2F9,5.2913
mp-1220028,PrH3(SO4)3,5.3031999999999995
mp-1220077,NdSiBO5,5.222799999999999
mp-1221271,Na3Be3Pb2F13,5.3233999999999995
mp-1221381,Na3Th6ZnF29,5.2871999999999995
mp-1222537,LiZr5TlF22,5.2197000000000005
mp-1222571,LiAlSi3O8,5.2109000000000005
mp-1223430,LaB3F12,5.2608999999999995
mp-1223450,KSrB(PO4)2,5.2843
mp-1223490,KCN,5.248200000000001
mp-1223526,KBaB(PO4)2,5.3122
mp-1223554,KAlNiF6,5.2764
mp-12237,HoP5O14,5.2355
mp-1223871,K4NaCl5,5.1831
mp-1224179,K3NaP4(H2O7)2,5.2887
mp-1224582,K3Na(B3O5)4,5.2307
mp-1224894,GaH6N2F3,5.2811
mp-1227120,CaH2CO4,5.2383
mp-1227768,BaSr2(PO4)2,5.3139
mp-1237277,Ca(BH4)2,5.3112
mp-1238590,AsH3C(OF3)2,5.2391
mp-1244960,AlF3,5.2615
mp-1245158,AlF3,5.2494
mp-1247025,LiPr(SO4)2,5.276999999999999
mp-1265115,SiO2,5.241499999999999
mp-13024,AlPO4,5.2723
mp-13592,TlB(CN)4,5.2616
mp-13614,Rb2Be3Cd2F12,5.2364999999999995
mp-13755,BaNa(PO3)3,5.3054
mp-13898,Cs2NaInF6,5.3088999999999995
mp-13981,KPO3,5.1832
mp-14190,NdPO4,5.314500000000001
mp-14389,Na3AlP8O23,5.2445
mp-14484,KNaLi2(SO4)2,5.2973
mp-14941,Al2Pb3F12,5.2252
mp-15382,TmP5O14,5.231
mp-15395,CsBePO4,5.197800000000001
mp-15408,KGaF4,5.2165
mp-15543,NaLiZr(Si2O5)3,5.2029
mp-15599,K2Ca2(SO4)3,5.3171
mp-16777,NaAlP2O7,5.288600000000001
mp-17031,KAlP2O7,5.298
mp-17128,CsTb(PO3)4,5.329199999999999
mp-17605,CsNd(PO3)4,5.3166
mp-17770,CsPr(PO3)4,5.307600000000001
mp-1784,CsF,5.281
mp-18343,BaMgP2O7,5.322800000000001
mp-18566,LaSnF7,5.2332
mp-18572,KEr(PO3)4,5.3294
mp-1938,Al2O3,5.3131
mp-22457,K3Na(SO4)2,5.2997
mp-23209,SrCl2,5.2286
mp-23326,Ca4Cl6O,5.2422
mp-23648,Li4Al3Si3ClO12,5.2612000000000005
mp-23667,RbP(HO2)2,5.237
mp-23734,MgP(HO)7,5.2566
mp-23768,AlZnH4O2F5,5.2304
mp-23780,Na3H(SO4)2,5.1855
mp-23781,Rb3H(SO4)2,5.251099999999999
mp-23797,LiH6ClO7,5.3129
mp-23819,Al2P2H9NO11,5.2559000000000005
mp-23887,MgH12SO9,5.2145
mp-23909,H6CN3ClO,5.1998
mp-23911,MgH20S2(NO7)2,5.2064
mp-23934,PH6NO4,5.239599999999999
mp-23942,KPHNO2,5.241700000000001
mp-23944,BaH6Cl2O11,5.3184000000000005
mp-23970,NdP2H9O10,5.2907
mp-24046,NaAlH24(SO10)2,5.3109
mp-24065,CaB2H10O9,5.2689
mp-24109,NaP(HO2)2,5.2655
mp-24179,KH6C2S2NO4,5.3161000000000005
mp-24180,RbH6C2S2NO4,5.1915000000000004
mp-24263,KP(HO2)2,5.2142
mp-24336,MgH4(ClO)2,5.3291
mp-24381,H5ClO2,5.2194
mp-24384,CaH8(ClO2)2,5.3246
mp-24396,MgH14SO11,5.196400000000001
mp-24397,MgH8SO8,5.2544
mp-24402,CaAlSiHO5,5.244400000000001
mp-24421,BaH2Cl2O7,5.1846
mp-24438,K2MgH12(SO7)2,5.196
mp-24446,LiH2SO4,5.1906
mp-2452,P2O5,5.2021
mp-24656,YH3(SO4)3,5.288
mp-24712,PH5NO3F,5.318899999999999
mp-24757,AlBP2H5NO9,5.2797
mp-24798,Rb3B12H12Cl,5.2717
mp-24799,Cs3B12H12Cl,5.2742
mp-25469,AlCl3,5.311
mp-27457,Ba(PO3)2,5.2784
mp-27526,K3InF6,5.322100000000001
mp-27583,Sr2P6O17,5.326
mp-27755,KAlCl4,5.2915
mp-27949,Si2H6O,5.2606
mp-28257,SOF2,5.2926
mp-28477,Sr(ClO3)2,5.279400000000001
mp-28512,Ba(ClO3)2,5.3105
mp-28583,Si2NCl5,5.3015
mp-29355,NaTeF5,5.3112
mp-29475,BH2N,5.298500000000001
mp-29731,HoClO,5.1843
mp-29756,RbB3O5,5.218500000000001
mp-29877,K2ReH9,5.2334
mp-30197,K3ErCl6,5.1937999999999995
mp-30927,CsAs4F13,5.2957
mp-31127,Sr3P4O13,5.2118
mp-31269,Na2S2O7,5.2697
mp-31306,C2O3F2,5.2829999999999995
mp-31362,Na3YCl6,5.2411
mp-31373,H18SO12,5.219799999999999
mp-31374,H30S2O21,5.2561
mp-33872,Na7Zr6F31,5.279400000000001
mp-35035,KCN,5.3217
mp-35208,NdOF,5.2925
mp-3552,Li2Si2O5,5.24
mp-36033,PrOF,5.1926000000000005
mp-36066,PNO,5.2455
mp-3635,LiBO2,5.232
mp-3857,Ba3(PO4)2,5.2633
mp-38684,Li2MgCl4,5.277
mp-3977,CsB3O5,5.305000000000001
mp-41472,Ca5P3HO13,5.199199999999999
mp-4529,K2SO4,5.2168
mp-4609,HfSiO4,5.306299999999999
mp-4648,KTeF5,5.2469
mp-4734,NaPO3,5.2218
mp-4871,ErP5O14,5.2326999999999995
mp-5033,Tl2SiF6,5.1981
mp-504600,NaH4ClO2,5.2585
mp-504943,KNaP2H2O7,5.2202
mp-505492,CsNiF3,5.2134
mp-510545,K2BeH4(SO5)2,5.2395
mp-530399,LiAl5O8,5.251
mp-532290,Zr3BiF15,5.204
mp-532575,Na13Ca7S12(O16F)3,5.2446
mp-540550,NaH2ClO5,5.2333
mp-540731,MgB4(H9O8)2,5.2211
mp-540742,NdTl(PO3)4,5.2239
mp-540981,CsHSO4,5.2916
mp-541593,ZrPb2F8,5.2294
mp-541870,KAl2P2H5O11,5.2526
mp-542129,CsAlBP2HO9,5.2653
mp-542130,RbAlBP2HO9,5.2635
mp-542280,Na4Ca(PO3)6,5.1981
mp-5427,Mg2P2O7,5.3260000000000005
mp-542874,LiAl(SiO3)2,5.304600000000001
mp-545974,AlPO4,5.3246
mp-546079,MgCO3,5.1935
mp-546633,KClO4,5.232200000000001
mp-546711,CsClO4,5.3231
mp-550759,RbClO4,5.2286
mp-553891,Mg2BP3(H3O7)2,5.1936
mp-553925,Rb5B19O31,5.2851
mp-554002,Al(HO)3,5.2323
mp-554009,Er4Si3O11F2,5.2753
mp-554018,Mg3BeAl8O16,5.240499999999999
mp-554056,Ca2B5BrO9,5.2051
mp-554113,LuP5O14,5.265700000000001
mp-554236,Ca5P3ClO12,5.3002
mp-554288,NaPH4O5,5.2287
mp-554355,CaF2,5.2002
mp-554568,H10C3NClO,5.3117
mp-554583,DyP5O14,5.2489
mp-554756,PH6CNO3,5.2433000000000005
mp-554831,Yb4Cl6O,5.200900000000001
mp-554854,CsLuP2O7,5.1874
mp-554918,BaY6Si3B6(O12F)2,5.233600000000001
mp-555076,KNaSnF6,5.1831
mp-555110,AsH5C2(OF3)2,5.2482
mp-555576,KNaS2O7,5.2338000000000005
mp-555742,Ba2B5ClO9,5.2422
mp-555899,Li2Si3O7,5.2253
mp-556063,PrP3(HO2)6,5.1933
mp-556226,NaB3O5,5.2407
mp-556319,SiO2,5.2035
mp-556335,YP5O14,5.254899999999999
mp-556503,LiH3CO3,5.2446
mp-557244,SiO2,5.19
mp-557406,NaB3O5,5.2573
mp-557560,LiH4SNO4,5.2109
mp-557645,K5NaS4(ClO6)2,5.2926
mp-557878,KNi(PO3)3,5.2485
mp-557985,KPO3,5.2465
mp-557994,Ba3Sc(BO2)9,5.2831
mp-558160,NaYCO3F2,5.2521
mp-558162,RbP(OF)2,5.2073
mp-558200,SiO2,5.3290999999999995
mp-558267,NaLiSiB3HO8,5.2406
mp-558293,K2Na(B3O5)3,5.3008999999999995
mp-558427,Na6Mg(SO4)4,5.2539
mp-558733,SiO2,5.2816
mp-558863,H9C5NO5,5.2406
mp-558867,H7ClO7,5.2091
mp-559062,KP(OF)2,5.2453
mp-559066,Ba3Y(BO2)9,5.2095
mp-559135,Na2MgH8(SO6)2,5.229
mp-559142,KLi(PO3)2,5.2922
mp-559300,KLi(PO3)2,5.2452
mp-559330,Sr4B14O25,5.206300000000001
mp-559434,Tb(BO2)3,5.2774
mp-559636,KB3O5,5.225300000000001
mp-559646,KCS(OF)3,5.2646
mp-559719,LiPr(SO4)2,5.3098
mp-559732,K2Nd(PO3)5,5.2501
mp-559833,Na2YC(OF)3,5.261
mp-560196,Al(HO)3,5.2042
mp-560614,KLiSO4,5.260400000000001
mp-560667,CsLi(PO3)2,5.2843
mp-560721,NaCaBeSi2O6F,5.2938
mp-560830,Nd3Si2ClO8,5.1978
mp-560832,CaH2CO4,5.217499999999999
mp-560866,LiLa(PO3)4,5.2152
mp-560974,BeAl6O10,5.214500000000001
mp-560993,CaAl12Si4O27,5.250399999999999
mp-561141,KYP2O7,5.2017999999999995
mp-561253,Ba3Lu(BO2)9,5.2514
mp-561291,SiO2,5.241
mp-561368,NaClO4,5.2673
mp-561491,KNaMg2Si4(O5F)2,5.2199
mp-561514,NaSrB5O9,5.2256
mp-562102,K2S2O7,5.2195
mp-565711,P2O2F3,5.3101
mp-567498,Rb2NaTmCl6,5.2006
mp-568670,Cs2NaTbCl6,5.251099999999999
mp-569117,CsLi2Cl3,5.2393
mp-571666,CsLi3Cl4,5.2744
mp-572874,AlH14C4NOF4,5.1852
mp-580631,Cs2KTbCl6,5.2262
mp-600065,SiO2,5.3276
mp-6015,LiSiNO,5.2948
mp-6030,Be3Al2(SiO3)6,5.3234
mp-603327,H3SNO3,5.2018
mp-6124,NaAl(SiO3)2,5.226800000000001
mp-6211,RbLiSO4,5.2356
mp-625054,AlHO2,5.2866
mp-625151,H7ClO3,5.2273
mp-625392,Lu(HO)3,5.2541
mp-625468,Lu(HO)3,5.326099999999999
mp-626083,Si2H2O5,5.2745
mp-626229,H4SO5,5.2569
mp-626486,H4SO5,5.2574
mp-628726,Sr(AlCl4)2,5.2927
mp-6318,KLiSO4,5.3246
mp-634117,BH3,5.2841000000000005
mp-642650,LiP(HO)2,5.3243
mp-642725,CaHClO,5.3294999999999995
mp-642834,BaH5ClO3,5.2975
mp-643026,SrH4(ClO)2,5.2889
mp-643759,GaH3NF3,5.317
mp-6442,LiAl(Si2O5)2,5.3198
mp-645317,Li4CO4,5.3083
mp-645338,Sm(BO2)3,5.3245000000000005
mp-645340,Nd(BO2)3,5.254999999999999
mp-647281,Sm2B4O9,5.3258
mp-650960,Hf(ClO4)4,5.2202
mp-6527,Na3Li3In2F12,5.2896
mp-6535,NdAl3(BO3)4,5.220300000000001
mp-6585,CaMgB2O5,5.312099999999999
mp-6667,CaBPO5,5.3231
mp-6669,Sr5P3O12F,5.2119
mp-6686,K2NaInF6,5.2456
mp-672214,BePbF4,5.1996
mp-6726,CsLiSO4,5.2743
mp-675104,Na3YCl6,5.3058000000000005
mp-675896,Ca2NdF7,5.2646
mp-676361,Li3ErCl6,5.21
mp-677192,K4PH5S3O16,5.2584
mp-680122,TlB5O8,5.1858
mp-6813,KCa10(PO4)7,5.2354
mp-683947,SiO2,5.2029
mp-6873,CaAlSiO4F,5.2089
mp-690703,BaH4(ClO)2,5.2477
mp-693612,NaCa3SmP3O12F,5.3058
mp-695383,K2HS2NO6,5.270499999999999
mp-695906,RbSmH8(SO6)2,5.1941
mp-696157,NaP(HO)6,5.2186
mp-696166,CaH4(ClO)2,5.2837
mp-696396,NaHCO3,5.2832
mp-696457,ScP3(HO2)6,5.3068
mp-696497,Mg3Si4(HO6)2,5.2315
mp-696845,MgH12(ClO3)2,5.1995000000000005
mp-697253,SiH12C2(NF)6,5.1979
mp-697592,BePH3O5,5.2496
mp-697666,H6S(NO2)2,5.2248
mp-697913,HfP2(H3O5)2,5.203399999999999
mp-698063,Na2P2H2O7,5.2255
mp-698084,H4NClO4,5.279800000000001
mp-698170,Ca2B5H2ClO10,5.2431
mp-699136,NaAlH2CO5,5.2019
mp-699447,RbLiH4S2(NO3)2,5.2524999999999995
mp-699473,Li2B12H26O7,5.2101
mp-703297,H7S(NO2)2,5.305
mp-703312,RbPH4O5,5.2005
mp-703528,RbP(HO2)2,5.1886
mp-706367,KCaP3H4O11,5.2022
mp-706629,NaB2H5O6,5.276199999999999
mp-706976,PH4N(OF)2,5.1888
mp-706986,PH4NO3,5.208500000000001
mp-707377,RbHSO4,5.197
mp-707457,KMg2B12H19O30,5.2772
mp-707876,Ca3Be2P4(HO2)10,5.1849
mp-707900,PrH20S4N5O16,5.2027
mp-707910,H22C10O3,5.196
mp-709723,Al2P3H17C4(NO6)2,5.226100000000001
mp-720360,Na13Ca7S12Cl(O24F)2,5.1831
mp-720382,H12Cl2O13,5.255
mp-720570,Na2PH11O8,5.2565
mp-720571,CaH8(ClO2)2,5.1822
mp-721067,LiCaP3H8O13,5.2238
mp-721075,Ga2P3H11O13,5.234
mp-721618,SrB6(H4O7)2,5.2619
mp-721624,Ca5P3HO13,5.2118
mp-721813,AlH18CS2N3O14,5.2842
mp-721901,K2B4H8O11,5.2017
mp-721958,K4P4(H2O5)3,5.2223
mp-7324,KBePO4,5.2636
mp-7337,NdAl3(BO3)4,5.3154
mp-733840,GaH12N3(OF2)3,5.2173
mp-733849,Li2P2H2O7,5.2791
mp-733862,KCaP3(HO2)6,5.2306
mp-733877,CaB3H13O12,5.219600000000001
mp-734394,KAlP2H4O9,5.2367
mp-734771,PrP2(HO)7,5.235200000000001
mp-735022,SrPHO4,5.2009
mp-738629,CsGaH24(SO10)2,5.2376000000000005
mp-738697,Al3P4H18C3N3O16,5.216600000000001
mp-740717,LiH4SNO4,5.2707
mp-753671,PNO,5.1829
mp-754113,TmClO,5.297899999999999
mp-754936,DyAlO3,5.3027999999999995
mp-755346,Li5BO4,5.184900000000001
mp-755689,ErClO,5.2575
mp-755894,Li2O,5.2421999999999995
mp-756270,Lu4(B2O5)3,5.233300000000001
mp-756768,Li3BePCO7,5.242999999999999
mp-757909,KP(HO2)2,5.261
mp-758868,MgBP(H3O4)2,5.3035
mp-760502,LiH2ClO,5.3125
mp-760697,GaH7(NF2)2,5.1898
mp-7617,Rb3YF6,5.203799999999999
mp-766345,Y5O4F7,5.2002
mp-768887,Y(BO2)3,5.247
mp-768961,YB5O9,5.2604
mp-770092,HfP2O7,5.292
mp-772748,Ba2P6O17,5.254700000000001
mp-772922,Al3P3H9C2NO13,5.1942
mp-773079,AlZnH16N(OF)6,5.186
mp-773491,RbH2SNO3,5.1839
mp-774810,RbPHO3F,5.1867
mp-776475,Al2O3,5.215800000000001
mp-779518,BaP4O11,5.2234
mp-782002,SmH8S3N3O10,5.2332
mp-850292,Dy2H16S3O20,5.1993
mp-8627,SmBO3,5.2553
mp-865188,MgH8(ClO6)2,5.3273
mp-8985,Ba2YC2(O2F)3,5.263999999999999
mp-9427,NaYP2O7,5.2923
mp-9468,KCa9Mg(PO4)7,5.2804
mp-9749,Sr(BO2)2,5.3153
mp-978284,Na2P3HO9,5.2373
mp-983327,KH4O2F,5.2058
mp-984766,Ca(BH4)2,5.2954
mp-989229,MgH8(ClO6)2,5.2195
mp-989578,Rb2NaInF6,5.247199999999999
mp-995224,CO2,5.324
mp-998561,CsSrCl3,5.3197
mp-1017555,CsBeF3,5.385
mp-1019510,AlPO4,5.478400000000001
mp-1019514,AlPO4,5.4666
mp-1019526,Ba3Si2(B3O8)2,5.420599999999999
mp-1019528,Ba2Mg(BO2)6,5.4089
mp-1019606,Cs2Li2B2P4O15,5.4237
mp-1019718,CsBe4(BO3)3,5.4193999999999996
mp-1019782,K2LiB(PO4)2,5.3918
mp-1019805,KB(S2O7)2,5.5005
mp-1020015,Li2B3PO8,5.402900000000001
mp-1020060,LiB(S2O7)2,5.5096
mp-1020142,Na2B4O7,5.4224
mp-1020146,Na2LiB5(PO7)2,5.4471
mp-1020159,Na2Si(S2O7)3,5.3318
mp-1020624,NaBe(BO2)3,5.359
mp-1020656,RbY(PO3)4,5.5037
mp-1020657,NaSr(PO3)3,5.4147
mp-1020683,NaCa(PO3)3,5.457000000000001
mp-1020740,YBe2B5O11,5.4105
mp-1070599,CsYbCl3,5.3852
mp-1078205,KRb2InF6,5.4673
mp-10804,NaYPO4F,5.4907
mp-10935,NaErPO4F,5.5088
mp-1095543,LiBH4,5.4657
mp-1096927,CsCaCl3,5.3456
mp-1097916,CsCaCl3,5.382899999999999
mp-1102008,PrPO4,5.4946
mp-1102021,TbPO4,5.4936
mp-1103416,NaBH4,5.4542
mp-1103675,H4NF2,5.481
mp-1105223,ZrF4,5.3495
mp-1106168,KP(HO2)2,5.4865
mp-1106172,BH5NCl,5.4345
mp-1111028,Na2LiYF6,5.4306
mp-1111142,NaLi2GaF6,5.3462
mp-1112556,CsK2GaF6,5.4981
mp-1112567,Cs2NaTmCl6,5.4524
mp-1112970,Cs3InF6,5.333600000000001
mp-1114330,Na3GaF6,5.3573