material_id,pretty_formula,band_gap
mp-643356,SrH2Br2O,4.1796999999999995
mp-643701,TlP(HO2)2,4.1826
mp-645709,SnSO4,4.1859
mp-645962,La4B14O27,4.1737
mp-6475,NaZr2(PO4)3,4.2082
mp-652479,LiZnPO4,4.1917
mp-6610,K3Cu(CN)4,4.1667
mp-6632,Ca5B3O9F,4.236800000000001
mp-6633,NaCSN,4.2218
mp-669304,Cs3Tb2Br9,4.1926
mp-672200,RbC2N3,4.1966
mp-673696,Lu4Zr3O12,4.2016
mp-674478,BaCO3,4.1863
mp-675065,Er4Zr3O12,4.176
mp-676483,NaLiZnP2O7,4.2379
mp-676778,KBiF4,4.2168
mp-677013,Na3Pb2S3ClO12,4.236
mp-677391,Tm4Zr3O12,4.1637
mp-677780,Ca2MgSi2O7,4.2414000000000005
mp-681439,LiZr2(PO4)3,4.2315
mp-6822,NaGa(SiO3)2,4.1792
mp-684503,LiSn(PO3)3,4.2059
mp-684509,LiSn(PO3)3,4.2158
mp-686583,Na5Zr4Si3(PO8)3,4.1738
mp-686607,K15Nd7Zr9(PO4)24,4.2042
mp-693340,Al4Zn4P8H13N3O32,4.1775
mp-693463,NaCa3ScZn3(SiO3)8,4.2163
mp-693746,Na17Zr7Sc5Si6(PO6)12,4.2316
mp-695316,Ca2AlH10BrO8,4.192
mp-695536,LaH6S3(NO3)3,4.2155
mp-695805,Li2FeP2O7,4.2445
mp-695831,CaH4(N3O)2,4.1800999999999995
mp-695948,PH4SNO2,4.1913
mp-696780,FeP2(H4O5)2,4.1737
mp-696842,NaH3(SeO3)2,4.2328
mp-696998,K6BiH3(Cl2F)4,4.1881
mp-697285,SrH10(SO4)2,4.184
mp-698303,MnP2H36C12N6(ClO)2,4.2192
mp-699482,Na2H20CO13,4.2389
mp-703295,SrH2I2O,4.2031
mp-703550,LiZnPH2O5,4.1993
mp-707135,Al2Si4O11,4.1914
mp-707324,PH6SN3,4.177700000000001
mp-707571,Na3SiH11O9,4.1941999999999995
mp-707729,BaH6C2S2N2O3,4.175800000000001
mp-707762,K2CaH8(N3O)4,4.1845
mp-720112,Sr5Al10(Si7O24)2,4.2338000000000005
mp-720294,AsH18N3O7,4.1749
mp-720433,Be2As(HO)9,4.204
mp-720868,Ca2CdH24(ClO2)6,4.241899999999999
mp-721312,Na2H2CO4,4.169099999999999
mp-722329,H12C4IN,4.1752
mp-723540,K6BiH3(Cl2F)4,4.1699
mp-7331,Cs2MgFe(CN)6,4.2139
mp-733858,CaH4Se2O7,4.2078
mp-740740,Na2ZnP(H5O4)3,4.1654
mp-743,RbN3,4.1977
mp-752488,Li3FeOF3,4.2017
mp-752569,La3ScO6,4.171399999999999
mp-752657,Li2FeP2O7,4.2015
mp-7531,Ca4Al6O13,4.1954
mp-753175,SrH2(SeO3)2,4.2029000000000005
mp-753547,Li2NiP2O7,4.1714
mp-753649,LiZrPCO7,4.1610000000000005
mp-754334,NaTmO2,4.2345
mp-754355,Tm(HO)3,4.1719
mp-754401,Al2O3,4.2347
mp-754761,Sr2HfO4,4.2426
mp-755044,CaTb2O4,4.2158999999999995
mp-755141,NaHoO2,4.1779
mp-755252,DyHO2,4.1726
mp-755289,Li3Y3ZrO8,4.1806
mp-755313,Sc2O3,4.1629000000000005
mp-755383,Li3FeP2HO8,4.1774
mp-755417,Ba3(BO3)2,4.1698
mp-755685,SmYO3,4.2072
mp-755716,HoHO2,4.200399999999999
mp-755769,ZrO2,4.2052
mp-756144,Li4Fe(PO4)2,4.2074
mp-756273,Lu(HO)3,4.1776
mp-756299,Li4HfO4,4.2257
mp-756494,Na3GePCO7,4.2445
mp-756998,CdH2(SO4)2,4.189
mp-757108,Li3FePCO7,4.2421999999999995
mp-757224,Th4P6O23,4.1911
mp-757456,Li4Fe(PO3)6,4.220700000000001
mp-757481,Li2FeP2O7,4.164999999999999
mp-757746,Li5MnP3O11,4.1628
mp-758006,Ca2SiO4,4.1639
mp-758031,Li4Sn(PO3)6,4.238200000000001
mp-758086,LiSn(PO3)3,4.1893
mp-758368,LiP4WO12,4.1717
mp-758806,B5PH4Cl,4.2176
mp-758829,Nb2OF8,4.2332
mp-759040,LiMn2(PO3)5,4.175700000000001
mp-759299,Li2MnP4(H4O5)4,4.1786
mp-759587,LiSb(PO3)4,4.1998999999999995
mp-759673,LiBiP2O7,4.1975
mp-759759,NaGa3P2(HO3)4,4.191599999999999
mp-760795,Al10ZnO16,4.243200000000001
mp-762240,K2Li2TiO4,4.2273
mp-762352,P(H3C)3,4.1823
mp-766090,Hf3Sc4O12,4.189299999999999
mp-766685,Li3FePCO7,4.2362
mp-766696,Li3FePCO7,4.2013
mp-766699,Li3FePCO7,4.2315
mp-767546,Na2AsPCO7,4.1674999999999995
mp-768231,YHO2,4.2185999999999995
mp-768411,Dy2SiO5,4.1639
mp-768490,Bi2(SO4)3,4.1958
mp-768573,Lu3AlO6,4.215
mp-768658,La(HO)3,4.1636999999999995
mp-768974,BaY3Cl11,4.2205
mp-769009,Ba2YCl7,4.1941
mp-769271,Sr4Ta2O9,4.1974
mp-769333,Ca4Ta2O9,4.183400000000001
mp-769390,Ca3Ta2O8,4.2101999999999995
mp-770271,BaLaCl5,4.1962
mp-770588,Li2FeH4(SO5)2,4.2371
mp-771324,Na3CaPCO7,4.190200000000001
mp-771703,LaAlO3,4.168100000000001
mp-772019,Ba5La2Cl16,4.2427
mp-772063,BaLaCl5,4.2346
mp-772174,Ga2(WO4)3,4.2208000000000006
mp-772193,La(HO)3,4.2352
mp-772400,Li2W(OF2)2,4.1868
mp-773111,Ba2LaCl7,4.2082
mp-774757,Na3PH12CO11,4.1941999999999995
mp-774895,Li2Mg2(WO4)3,4.2023
mp-775205,Li3MnP2HO8,4.1758999999999995
mp-775837,Sc2O3,4.164999999999999
mp-776022,Li3FeF5,4.2176
mp-777071,Li3Sb(PO4)2,4.216
mp-777567,LiFeF4,4.2363
mp-778185,Li2FeH8(SO6)2,4.1643
mp-778450,LaSmO3,4.2257
mp-778460,Li3Bi(PO4)2,4.241
mp-779351,Li4MnP6(H4O11)2,4.2129
mp-8111,LaOF,4.219
mp-827,KN3,4.2019
mp-866339,Cd(PO3)2,4.186000000000001
mp-867132,RbZnH2Se2BrO6,4.2118
mp-8697,ScBO3,4.174099999999999
mp-8973,NaSi2N3,4.193999999999999
mp-942700,LiNiSO4F,4.1699
mp-973330,SbPH4(O2F3)2,4.1715
mp-998623,TlCdF3,4.2287
mp-998787,CaTlCl3,4.2085
mvc-1303,CaMnP2O7,4.164
mvc-2206,MgFe(PO3)4,4.2171
mvc-7381,ZnW2O7,4.1856
mp-1017550,Be3N2,4.276999999999999
mp-1019583,CaAl2SiO6,4.285
mp-1019602,Cs2Al2B2O7,4.2490000000000006
mp-1019720,CsZr2Al(PO4)4,4.3299
mp-1019781,K2Na3P3O10,4.343100000000001
mp-1019786,K3Zn(BO2)5,4.2518
mp-10251,LiDyO2,4.3417
mp-1036537,LiMg14AlO16,4.2761000000000005
mp-1037656,LiYMg30O32,4.330500000000001
mp-1037661,LiYMg30O32,4.2996
mp-1038199,NaMg30AlO32,4.3086
mp-10413,AgB(CN)4,4.2924
mp-10429,LaYO3,4.3316
mp-1079758,TbHO2,4.3147
mp-1080045,SrHBrO,4.3214
mp-1095215,K2Mg(CO3)2,4.2836
mp-1096983,H3CI,4.288399999999999
mp-10971,LiErO2,4.283200000000001
mp-1105542,NaFeH8(NF3)2,4.2488
mp-1111055,Na2LiAsF6,4.3403
mp-1111579,K2TlGaF6,4.2661
mp-1111602,K2RbBiF6,4.248
mp-1111652,K2NaAlCl6,4.3251
mp-1112103,Cs2YTlCl6,4.3479
mp-1112327,CsK2AlCl6,4.3276
mp-1112535,Cs2NaSbF6,4.258500000000001
mp-1113028,Cs2KYBr6,4.2875
mp-1113518,Cs2ScInF6,4.2714
mp-1114687,Rb3AsF6,4.2991
mp-1120734,Cs3LiCl4,4.3445
mp-1120741,Cs2HfCl6,4.2585999999999995
mp-1173717,Na4Al3Si3CNO13,4.3331
mp-1176351,Na3Li3Fe2P2(CO7)2,4.3135
mp-1176675,LiLuO2,4.334999999999999
mp-1176706,LiFeF3,4.3395
mp-1177942,Li2Hf2O5,4.341200000000001
mp-1181087,H2O,4.3212
mp-1181700,H4CN2O,4.296
mp-1181784,K2MgMo2(H2O5)2,4.347
mp-1181947,Mg3B2H9SO13F,4.2822000000000005
mp-1190171,C,4.328199999999999
mp-1190733,Cs4PbCl6,4.3021
mp-1192709,Cs3Ho2Br9,4.2842
mp-1193046,CsMgAs(H6O5)2,4.3143
mp-1193312,Cs3Er2Br9,4.2885
mp-1193942,NaTb(SiO3)2,4.3045
mp-1194510,Al2Si2PbO8,4.3009
mp-1194569,KY(SeO3)2,4.2551
mp-1194598,Y2Mn(Si3O7)4,4.3003
mp-1194870,Na4NiP2O7F2,4.27
mp-1194994,KZnAs3F18,4.3121
mp-1195073,Al2Si2PbO8,4.2675
mp-1195198,H3S,4.347799999999999
mp-1195500,RbY(SeO3)2,4.2886
mp-1195542,Rb2LiNd(BO3)2,4.255299999999999
mp-1195591,LiAlH34(C3N)4,4.2513
mp-1195660,Ba4GaB10H7O24,4.3198
mp-1195845,KLaH2S2O9,4.2678
mp-1195997,YB3(H5N)6,4.279
mp-1196083,KH2AuC4N4O,4.2716
mp-1196145,Al2Si2PbO8,4.2501
mp-1196488,Zn2H10Cl4O5,4.2602
mp-1196575,H8C2SBrNO,4.3025
mp-1196615,La4PClO8,4.295099999999999
mp-1196928,MgZrP2(H2O3)4,4.2469
mp-1197015,CdP2(H4O5)2,4.2698
mp-1197214,H9C2N5(ClO4)2,4.322
mp-1197746,NaSi8H7O20,4.2768
mp-1197964,CsCoH24(C7N4)2,4.2737
mp-1198056,NaAlSiO4,4.2845
mp-1198217,Zn3H24C4Se5(N4O5)3,4.267799999999999
mp-1198339,SiH8(CBr)4,4.2563
mp-1198378,NaLiFePO4F,4.3042
mp-1198622,Li7La3Hf2O12,4.2606
mp-1198740,Li7Nd3Zr2O12,4.272399999999999
mp-1198888,LaH16C4Cl3O4,4.258900000000001
mp-1198930,LiGa(SeO3)2,4.2547999999999995
mp-1199163,LiH6C3BrN2,4.3194
mp-1199637,Sr8Li2B22H2O43,4.3217
mp-1199808,Tl2NiH12(SO7)2,4.287999999999999
mp-1200141,Ba3Bi(BO2)9,4.2893
mp-1200679,BHN4,4.3370999999999995
mp-1200784,SnH6Cl2O11,4.3413
mp-1201872,KH4O4F,4.2857
mp-1202046,Sr2PIO4,4.2921000000000005
mp-1202559,Ga6P8H56C14N7O32F,4.3039
mp-1202913,GaH15N5Cl3,4.2614
mp-1203928,NbH8N2OF5,4.3045
mp-1204533,Mg45Si32(H29O69)2,4.3207
mp-1205288,Mg48Si34H62O147,4.2757
mp-1205395,BaMg(CO3)2,4.246499999999999
mp-1206440,Cs2LiCrF6,4.3404
mp-1207531,Zn3B7IO13,4.2949
mp-1208784,Sr2TlCl5,4.2821
mp-1208994,ScTl(SO4)2,4.3456
mp-1209082,RbYSeCl2O3,4.3416
mp-1209117,SNF3,4.2462
mp-1209187,RbSc(SO4)2,4.3151
mp-1209189,RbSr2Br5,4.2889
mp-1209431,Rb3Li2Al(MoO4)4,4.3
mp-1210123,NaLaSiO4,4.2806999999999995
mp-1210133,NaGaP2O7,4.2654
mp-1210378,Rb2Mg2(MoO4)3,4.3042
mp-1210432,Na2MgCrF7,4.2515
mp-1210839,Lu2Be2GeO7,4.3229
mp-1210869,LiGaPO4F,4.2673000000000005
mp-1211249,KTb(CO3)2,4.3088
mp-1211274,KY(CO3)2,4.3384
mp-1211375,KSr2Br5,4.252
mp-1211400,KLa(SO4)2,4.3159
mp-1211486,LiPr6B3O14,4.3181
mp-1211857,K4Mg(MoO4)3,4.2969
mp-1211967,KSr6Sc(SiO4)4,4.2940000000000005
mp-1212309,K2Mg2(MoO4)3,4.2566
mp-1212517,HfBr4,4.2937
mp-1212621,H2C3NClOF4,4.3479
mp-1213138,Dy3Sc2Al3O12,4.3177
mp-1213599,CsNaNbOF5,4.3454
mp-1213820,Cs2Mg2(MoO4)3,4.2644
mp-1213894,CaYBO4,4.297499999999999
mp-1213966,Cs3Li2Al(MoO4)4,4.2996
mp-1214564,BaNaCrF6,4.3175
mp-1214592,Ba2Zn3F10,4.3139
mp-12147,Ca3Al2O6,4.2749
mp-1214740,Ba2Zr2(SiO4)3,4.2762
mp-1214846,BaH6C2N4O5,4.3027
mp-1215056,BaMn5(SO4)6,4.3486
mp-1216369,Zr2P3H3O13,4.266900000000001
mp-1218014,SrPrAl3O7,4.2928
mp-1218172,SrNdAl3O7,4.270900000000001
mp-1218418,Sr3Se2(ClO3)2,4.3173
mp-1219802,RbNaMg3Zn2(Si2O5)6,4.2766
mp-1220735,NaLa(WO4)2,4.3091
mp-1220817,NaLi3Ga4(SiO3)8,4.3025
mp-1220856,Na8Al6Si6IClO24,4.2555
mp-1220982,NaLiGa2(SiO3)4,4.2721
mp-1220990,NaH3(SeO3)2,4.339300000000001
mp-1221120,NaCa3ScZn3(SiO3)8,4.2614
mp-1221147,Na5BrCl4,4.2940000000000005
mp-1221210,Na4Al3Si3ClO12,4.3388
mp-1221317,Na2ScIn(SiO3)4,4.2777
mp-1221385,Na2BrCl,4.2871
mp-1221428,Na2Al2B2O7,4.3335
mp-1222268,MgAsH16NO10,4.2758
mp-1222367,LiLa(WO4)2,4.3294
mp-1222389,LiFeSO4F,4.3426
mp-1222466,MgZr4(PO4)6,4.3009
mp-1222552,Li4ZnIn2F12,4.2983
mp-1222841,LaSiBO5,4.2453
mp-1223509,KCSN,4.2858
mp-1223512,KMg3AlSi3(O5F)2,4.3481
mp-1223684,KNaMg3Zn2(Si2O5)6,4.285
mp-1223704,KAlCl2O,4.2752
mp-1223775,LaH6S3(NO3)3,4.344200000000001
mp-1224657,KMg2P2H31O23,4.2906
mp-1227113,CaPrAl3O7,4.2898
mp-1227115,CaNdAl3O7,4.2783
mp-1227119,CaYAl3O7,4.2752
mp-1227338,Be3ZnO4,4.2643
mp-1227489,CaAl12O19,4.3351999999999995
mp-1227499,Ca2Al2SiO7,4.3255
mp-1227540,Ca2AlH10ClO8,4.2877
mp-1227598,Ca4MgAl2Si3O14,4.3055
mp-1227702,Ca10Si3S3(ClO12)2,4.2797
mp-1227878,BaPb(SO4)2,4.2498000000000005
mp-1227900,BaLiMg2AlSi3(O5F)2,4.3443
mp-1227982,BaCO3,4.2487
mp-1227986,BaAl2(SiO4)2,4.3278
mp-1228563,Al2Si2PbO8,4.3096
mp-1229073,Ba2Pb(SO4)3,4.3317
mp-1237566,Rb3CrF6,4.3429
mp-1238309,CaSiBHO5,4.2661999999999995
mp-1245079,BeO,4.3026
mp-1255402,LiAlSiH2O5,4.2465
mp-1264049,Ba2AlNi2F11,4.2505
mp-13064,Dy2O3,4.2876
mp-13738,CsCd(PO3)3,4.316
mp-14050,Ca3Ga2(SiO4)3,4.2497
mp-14069,CsAlO2,4.2784
mp-14345,BaZnP2O7,4.3419
mp-14415,Pr2Be2GeO7,4.2702
mp-14678,Y3Sc2Al3O12,4.2713
mp-15073,BaSmC2O6F,4.3057
mp-15182,Rb2LiCo(CN)6,4.2865
mp-15736,Sr3AlO4F,4.287000000000001
mp-15833,Zn4P6SN12,4.2758
mp-15865,RbScAsO4F,4.2997
mp-16464,CsIn(PO3)4,4.3152
mp-1665555,LiNiPO4,4.322699999999999
mp-17035,K3Sc(PO4)2,4.2975
mp-17208,K2Li14Zr3O14,4.2813
mp-17315,Zr3Tl2OF12,4.2614
mp-17621,CsReO4,4.2611
mp-17881,SrFeP2O7,4.2713
mp-17891,NaYSiO4,4.2842
mp-17924,ZnP2PbO7,4.260299999999999
mp-18933,Li2WO4,4.309200000000001
mp-19492,LiMn(PO3)3,4.3259
mp-21266,BPPbO5,4.261
mp-21563,SrAlBO4,4.298500000000001
mp-22961,Li2ZnCl4,4.3019
mp-23046,SrIF,4.3096000000000005
mp-23096,LuSeClO3,4.338
mp-23183,NdCl3,4.2997000000000005
mp-23347,Rb4YbI6,4.333
mp-23764,Mg3Si2H4O9,4.257099999999999
mp-23771,SmH3(CO2)3,4.3141
mp-23843,LiHSeO3,4.3316
mp-23856,LiHO,4.2653
mp-23904,BaH4O3,4.2654
mp-24097,Mg3Si2H4O9,4.2475000000000005
mp-24193,NaH3O2,4.3479
mp-24220,Cs2FeH12(SO7)2,4.2649
mp-24433,KHSeO3,4.2487
mp-26191,Li3Ni2P5O16,4.3207
mp-26323,LiMoP2O7,4.3224
mp-26521,LiMo(PO3)4,4.3302
mp-26675,LiSb(PO3)4,4.251899999999999
mp-27221,Ca2Hf7O16,4.3193
mp-27256,Sb2(S2O7)3,4.2577
mp-27376,Rb6Si10O23,4.3121
mp-27748,Be(B3H7)2,4.2788
mp-28234,CaAl12O19,4.319500000000001
mp-28264,RbH3O2,4.2764
mp-28420,SrH4O3,4.3370999999999995
mp-28513,Pb(ClO3)2,4.3425
mp-28592,Li7Br3O2,4.2881
mp-28714,Dy(AlCl4)3,4.2673000000000005
mp-28842,Si3PH9,4.2571
mp-28873,CsBrO3,4.3148
mp-29080,Na3YBr6,4.2565
mp-29094,Nd3PO7,4.2611
mp-29103,CsAlBr4,4.2538
mp-29145,H3N,4.3412
mp-29276,Cd2P6O17,4.2535
mp-29598,NaP4N7,4.3008999999999995
mp-2963,CaAl2O4,4.3446
mp-29796,Ho(AlCl4)3,4.3163
mp-29825,K2Si2O5,4.3281
mp-29883,Rb3PbCl5,4.2767
mp-30086,GeCl4,4.2671
mp-30127,Rb3B7O12,4.3184
mp-30160,Si(CN2)2,4.2782
mp-30952,GaCl3,4.2785
mp-31026,Ba6Zn7F26,4.3432
mp-31117,NdScO3,4.3025
mp-3205,CaCO3,4.277699999999999
mp-32711,SrBr2,4.299799999999999
mp-33302,MgAl2O4,4.2657
mp-33335,MgAl2O4,4.2517
mp-33746,SrCO3,4.2823
mp-35795,BiPbF5,4.2907
mp-36526,AcOF,4.2844
mp-39003,Mg3Al14O24,4.312799999999999
mp-39770,Zr2P3H4NO12,4.2949
mp-40575,LiNi2P4H3O14,4.3128
mp-42175,Ca2AlH10ClO8,4.3268
mp-42508,Na4BeAlSi4ClO12,4.2519
mp-4659,Cd(PO3)2,4.318099999999999
mp-504539,CaLu2O4,4.2556
mp-504667,RbIn(WO4)2,4.3023
mp-504676,AlTl2F5,4.267799999999999
mp-505382,Na2W(OF2)2,4.2972
mp-505771,K2NaH5(CO4)2,4.3382000000000005
mp-510557,CsN3,4.261
mp-530722,MgAl2O4,4.337000000000001
mp-534778,NaCa2ScZn2(SiO3)6,4.2939
mp-534782,Ca18Nd2Si3P9(O16F)3,4.3443000000000005
mp-5401,Sr2B2O5,4.283799999999999
mp-540577,KZr2(PO4)3,4.2844999999999995
mp-5409,Y4Al2O9,4.3268
mp-541451,Ga2(SO4)3,4.3433
mp-5416,Na2SeO3,4.2817
mp-545756,ZnSO4,4.2721
mp-553884,Ba5Si(Br3O2)2,4.262499999999999
mp-553953,In2(WO4)3,4.2459
mp-554041,Na2Al2B2O7,4.3386
mp-554164,KLiZnP2O7,4.2923
mp-554252,K2NaCrF6,4.2623
mp-554324,LiCa9Mn(PO4)7,4.264200000000001
mp-554495,CaZr(PO4)2,4.336799999999999
mp-554529,Ba2TiO4,4.263599999999999
mp-554535,K2MnP2O7,4.3069
mp-554599,SnS2(O3F)2,4.2706
mp-554616,SiNi2(P2O7)2,4.342700000000001
mp-554634,SrMn5(SO4)6,4.3057
mp-554815,LaSc3(BO3)4,4.2845
mp-554948,NaI(OF)2,4.2882
mp-555104,Na2Er2B2O7,4.3422
mp-555436,S5N2(O2F)4,4.3178
mp-555472,Na4Zr2(SiO4)3,4.3108
mp-555497,SiO2,4.3008
mp-555512,RbCO2,4.2604
mp-555544,SiO2,4.3309999999999995
mp-555661,Ca9In(PO4)7,4.3213
mp-555691,SrZn(SeO3)2,4.331099999999999
mp-555975,NaH12C4S2BrO2,4.2875
mp-556025,MgH8C2S2(NO2)2,4.3106
mp-556083,As2H3CF9,4.3414
mp-556169,YSeO3F,4.3484
mp-556198,Na2Si3O7,4.3072
mp-556258,Na3BeAl(SiO4)2,4.327500000000001
mp-556414,CsTmSeCl2O3,4.3418
mp-556477,Lu2O3,4.2839
mp-556583,CsSb2F7,4.3142000000000005
mp-556903,HgSb4C2(OF11)2,4.2982
mp-557019,RbErSeCl2O3,4.3166
mp-557047,Cs2NaCrF6,4.2712
mp-557133,Cs2KMoF6,4.2766
mp-557227,KCa12Si4S2O26F,4.291399999999999
mp-557260,RbSb2F7,4.2682
mp-557366,NaCdH3(CO2)3,4.3046999999999995
mp-557414,BaSi6N8O,4.293
mp-557679,KNaSi2O5,4.2837
mp-557734,KIn(WO4)2,4.3259
mp-557997,CaSeO3,4.263400000000001
mp-558428,Ba9Sc2(SiO4)6,4.3063
mp-558836,MoF6,4.249700000000001
mp-559366,PBrNF,4.2508
mp-5594,Sc2Si2O7,4.325900000000001
mp-559452,Na5Li(PO4)2,4.3383
mp-559466,MnP3H12NO7,4.3019
mp-559691,Ca2Al2SiO7,4.3108
mp-559756,PrScO3,4.2605
mp-560045,H5CSN2Cl,4.3408
mp-560091,CsZr2(PO4)3,4.335500000000001
mp-560158,Na3Zn(BO2)5,4.270300000000001
mp-560622,CaLa2B10O19,4.3161
mp-560624,Na5Bi(P2O7)2,4.2988
mp-560870,BaGa2B2O7,4.305300000000001
mp-560956,Cs2KCrF6,4.3205
mp-561283,CdGaH14O7F5,4.3378
mp-561310,NaLiCO3,4.313400000000001
mp-562018,CSNF5,4.334
mp-567221,H10C3IN,4.3218
mp-568170,TbCl3,4.293
mp-570262,Cs3ZnCl5,4.2844
mp-570609,TlGaCl4,4.3067
mp-571266,GaCl3,4.3149
mp-571387,MgCl2,4.2732
mp-571467,Cs2NaYBr6,4.2492
mp-574086,SiBr4,4.2666
mp-581326,SiMoP3O11,4.337199999999999
mp-604315,Zn(BH4)2,4.2519
mp-605302,DyH6C6Cl3(O3F2)3,4.2831
mp-606680,CsLi2Br3,4.2867
mp-6076,Ca4LaB3O10,4.3032
mp-613518,K2SbF5,4.3424000000000005
mp-6150,Na4Zr2(SiO4)3,4.3210999999999995
mp-6160,Rb2PO3F,4.3183
mp-6185,ErCo(CN)6,4.2998
mp-6217,LaSc3(BO3)4,4.2822
mp-6219,K3Co(CN)6,4.3264
mp-6241,LiGa(SiO3)2,4.3077000000000005
mp-625249,P(HO)3,4.285299999999999
mp-625391,NaH3O2,4.304
mp-625501,NaH9O5,4.3045
mp-625718,Y(HO)3,4.2536
mp-625807,Al(HO)3,4.311999999999999
mp-626094,Al(HO)3,4.3393
mp-626173,HoHO2,4.3292
mp-626654,Al(HO)3,4.2524999999999995
mp-626725,Ba(HO)2,4.2518
mp-626994,Ba(HO)2,4.2558
mp-634434,NaHCN2,4.2807
mp-637256,KC2N3,4.3294999999999995
mp-642363,Al2O3,4.2487
mp-643062,H4IN,4.2487
mp-643066,ZnH2SO5,4.271599999999999
mp-643069,Li2HIO,4.3363
mp-643392,Ca(HO)2,4.2958
mp-645364,Sr(PN2)2,4.267899999999999
mp-649747,K2SbF5,4.2759
mp-655048,LiAlSiH2O5,4.3331
mp-66,C,4.338699999999999
mp-667379,Ba7Al64O103,4.2537
mp-669384,Cs2NaCo(CN)6,4.3132
mp-673807,Na3Sm7Cl24,4.3143
mp-6745,LiGa(SiO3)2,4.2814
mp-675758,Sr2LaF7,4.2761
mp-676232,KH5O3,4.3294999999999995
mp-677026,Ca10Mg7Al6Si17O60,4.3438
mp-677250,K2LuZr(PO4)3,4.3177
mp-684265,Mg2Al4Si5O18,4.3459
mp-686689,Y2BeAlBO7,4.2501
mp-686735,NaCaAlSi2O7,4.2603
mp-6884,Cs2LiCo(CN)6,4.3022
mp-690711,TlP(HO2)2,4.2684999999999995
mp-694318,In2(WO4)3,4.2477
mp-695172,CsMg12Al25Si29O108,4.3446
mp-695780,Li2MnP2O7,4.2766
mp-696288,LiH3(SeO3)2,4.341200000000001
mp-696420,ZnH8C2(SN3)2,4.2607
mp-696529,Al5HO8,4.3278
mp-696806,BaH4(BrO)2,4.3465
mp-697221,K2FeH4(SO5)2,4.2547
mp-697236,MgH2(SeO3)2,4.3123
mp-697263,LiAsH2OF6,4.285299999999999
mp-697563,Ca4MgB4H6(CO9)2,4.3338
mp-697946,Cs2Zr2ZnH12(OF2)6,4.2811
mp-698210,RbCoH24(C7N4)2,4.2895
mp-698218,LaH13C3S3O11,4.2977
mp-699257,CaAl2Si2(H2O5)2,4.3332
mp-703559,KSrAs(H4O3)4,4.3016
mp-706657,Al13Si5H18ClO38,4.2698
mp-707231,As2PHO6,4.2606
mp-707276,TeH9SN2O5F3,4.2993999999999994
mp-707312,SrH6C2S2N2O3,4.3178
mp-707897,Ca4Al2H22CO20,4.3104
mp-720971,Ca12Al11Si3Cl5O32,4.3306000000000004
mp-735535,NiPH6NO5,4.3466000000000005
mp-735543,MnH6SO6,4.3132
mp-743538,CrH18(O3F)3,4.2682
mp-743636,NaNiP2HO7,4.267
mp-743726,NaCa3AlFe3(SiO3)8,4.2771
mp-744930,FeH6SO6,4.329
mp-746730,FeP4O11,4.329000000000001
mp-752554,Y2HfO5,4.268599999999999
mp-752696,Li3FePCO7,4.2993
mp-753149,LiMn(PO3)3,4.3261
mp-753815,CaY2O4,4.2652
mp-754043,NaLuO2,4.3067
mp-754153,LiH2BrO,4.3134999999999994
mp-754237,LiTmO2,4.3153
mp-754663,Na2Be2O3,4.267200000000001
mp-755066,Al2O3,4.2446
mp-755421,Ca6HfO8,4.2518
mp-755537,Y2HfO5,4.2493
mp-756344,Li4ZrO4,4.323
mp-756888,La2(SiO3)3,4.3104
mp-756968,K3CaPCO7,4.313
mp-757560,Li3Sn2(PO3)7,4.3335
mp-758298,Li2NiP2O7,4.2949
mp-758693,Na4Al4H10O13,4.3175
mp-759071,LiSb(PO3)4,4.3073
mp-759103,LiMn(PO3)3,4.2941
mp-760109,Bi2(SO4)3,4.2501999999999995
mp-760461,LuBO3,4.2866
mp-761161,Li3MnF5,4.2497
mp-761952,Li5Sb(P2O7)2,4.2941
mp-766470,Na6Ca3MnC6(O9F)2,4.3288
mp-766515,ZnH6(SeO4)2,4.2577
mp-766624,Li3FePCO7,4.2926
mp-767295,Li3ZnPCO7,4.3098
mp-767552,Na3CaPCO7,4.2869
mp-768153,Li2AsPCO7,4.2892
mp-768417,LaAlO3,4.2775
mp-768831,Li2Fe2(SO4)3,4.2921
mp-768958,Ba2Y5Cl19,4.2872
mp-768979,Ba3Y2Cl12,4.3262
mp-768995,Ba2Y5Cl19,4.269299999999999
mp-770342,Tb2(WO4)3,4.3417
mp-770805,Li6Hf2O7,4.2889
mp-770968,Na3NiPCO7,4.2832
mp-771879,Sr2LaCl7,4.2448999999999995
mp-772273,Li2MnH4(SO5)2,4.2489
mp-772753,Li3ZnPCO7,4.3438
mp-772765,K2PrPCO7,4.263199999999999
mp-772835,K2NdPCO7,4.3452
mp-772845,K2SmPCO7,4.3337
mp-772850,La2Hf2O7,4.2506
mp-773068,LiZr2(PO4)3,4.2911
mp-774749,RbNa3Li12Ti4O16,4.3086
mp-776191,LiFeF4,4.3109
mp-777279,Li5FeOF5,4.2827
mp-779070,Li2NiP2O7,4.3029
mp-780421,LaAlO3,4.270499999999999
mp-780422,LaAlO3,4.2508
mp-780425,Tm(HO)3,4.3017
mp-780739,Ca2FeP2(H2O3)4,4.3241000000000005
mp-781622,Lu(HO)3,4.3411
mp-7991,BN,4.2704
mp-8291,BaTiF6,4.3416
mp-849529,MnH12S2(NO5)2,4.2456
mp-849787,K2MnP4(HO2)8,4.2508
mp-849805,B12H21C4S2I,4.2777
mp-850213,Yb4Br6O,4.251799999999999
mp-850930,Li3MnF5,4.3429
mp-863971,K2Mn3P4(HO3)4,4.2757000000000005
mp-867757,RbCaCO3F,4.3122
mp-9478,BaSi4O9,4.3452
mp-974451,K2Al2O3F2,4.3136
mp-976447,NaCrH8(NF3)2,4.2702
mp-983519,SnH22C6(NCl2)2,4.2918
mp-9842,RbSm(CO3)2,4.2658000000000005
mp-988,Si3N4,4.2577
mp-989178,ScOF,4.3381
mp-989577,LiTl2GaF6,4.2919
mp-995198,CO2,4.2495
mp-995234,HCO,4.3186
mp-998536,RbCaBr3,4.3001
mp-998739,MgTlF3,4.253
mp-998745,TlZnF3,4.2792
mvc-13239,TiF4,4.3462000000000005
mvc-14232,MgNiF4,4.3022
mvc-14364,MgSbF5,4.3056
mvc-15870,MgBiF5,4.2873
mvc-2215,CaFe(PO3)4,4.2926
mvc-2216,CaNi(PO3)4,4.3116
mvc-7394,CaW2O7,4.2712
mp-1019575,Ca4Al6SO16,4.4190000000000005
mp-1019607,Cs2Li5(BO2)7,4.357799999999999
mp-1019744,K2Al2Si3O10,4.3792
mp-1019892,La2B8O15,4.386499999999999
mp-1020123,MgSiO3,4.411099999999999
mp-1020620,Rb5Li6(BO2)11,4.3588000000000005
mp-1020641,Rb2Ca2(SiO3)3,4.3685
mp-1020650,Sr3Ge2(B3O8)2,4.439
mp-1020664,Rb2Li5(BO2)7,4.4245
mp-1024042,La4Al6O15,4.3513
mp-1025267,Cs2CaBr4,4.3889
mp-1038206,NaMg30AlO32,4.3643
mp-1038227,LiMg30AlO32,4.417999999999999
mp-10814,SrLiBO3,4.3689
mp-1095674,Cs2LiBr3,4.3533
mp-1101177,Y2Hf2O7,4.4333
mp-1103408,HC2N3,4.415
mp-1111122,K2YTlF6,4.411
mp-1111501,K3AsF6,4.381