material_id,pretty_formula,band_gap
mp-10080,PrGeBO5,4.0136
mp-1020145,Na2Ge(S2O7)3,4.003
mp-1021327,KLiICl,4.0542
mp-1029718,CsC2N3,4.0731
mp-1029920,Y2(CN2)3,4.0364
mp-10326,Zn(ReO4)2,4.0065
mp-1036532,NaMg14AlO16,4.0426
mp-1036839,SrMg30NiO32,4.0604
mp-1037547,Mg30ZnNiO32,4.0421000000000005
mp-1037710,KYMg30O32,4.0237
mp-1038123,CaMg30NiO32,4.0006
mp-1038124,CaMg30FeO32,4.0606
mp-1039695,NaMg30GaO32,4.0585
mp-1040205,KMg30BO32,4.0165
mp-1040209,KMg30GaO32,4.033199999999999
mp-1060281,BN,4.0137
mp-1064952,NaN3,4.0425
mp-1070852,YbHCl,4.075200000000001
mp-1079609,Bi(BO2)3,4.008100000000001
mp-1079630,Ba2TaInO6,4.052
mp-1080506,Sr2TaInO6,4.0244
mp-1099253,Mg3NiO4,4.0475
mp-1101377,ScHO2,4.0036
mp-1101379,ScHO2,4.023
mp-1101482,NaLi2FePCO7,4.031499999999999
mp-1101653,NaDyO2,4.0747
mp-1101793,YSeO3F,4.0023
mp-1105197,Cs2PaF7,4.0373
mp-1105453,SbPbF7,4.0524000000000004
mp-1110636,Na3BiF6,4.0014
mp-1111164,K3ScCl6,4.0634999999999994
mp-1111230,K2NaPrBr6,4.0149
mp-1111232,K2NaNdBr6,4.0289
mp-1111487,Na3YCl6,4.0119
mp-1111497,K3BiCl6,4.0671
mp-1111623,K2NaSbF6,4.0336
mp-1111656,K2LiYBr6,4.0408
mp-1111891,Na3LuCl6,4.0633
mp-1111895,Na3DyCl6,4.0483
mp-1111896,Na3ErCl6,4.0522
mp-1112645,Cs3YBr6,4.0698
mp-1112666,Cs2LiYBr6,4.0535
mp-1112786,Cs2KBiCl6,4.0624
mp-1113062,Cs2YInF6,4.062
mp-1113284,Na2LiTmCl6,4.0138
mp-1113313,Na3TbCl6,4.0142999999999995
mp-1113316,Na2LiLuCl6,4.0337
mp-1114410,KRb2ScCl6,4.0632
mp-1114570,Rb2LiNdBr6,4.0028
mp-1114582,Rb2LiYBr6,4.0385
mp-1114592,Rb2NaNdBr6,4.0601
mp-1114594,Rb2NaPrBr6,4.0479
mp-11601,NaErO2,4.0701
mp-11736,ZrSiO4,4.031500000000001
mp-1173736,Na3CaAl3Si3SO16,4.0002
mp-1177866,Li2SbPCO7,4.0412
mp-1178504,BaSrI4,4.0608
mp-1179079,Ta2H4O7,4.0020999999999995
mp-1183276,AlTl2F5,4.0615
mp-1185571,CsAs(HO2)2,4.0245
mp-1189516,Na3ScCl6,4.0379000000000005
mp-1189614,BaThO3,4.044
mp-1189850,H6C2SeO,4.023899999999999
mp-1190396,Sm2ZnTe2(SO7)2,4.0282
mp-1190527,Dy2ZnTe2(SO7)2,4.0013
mp-11917,Mg(BeN)2,4.073000000000001
mp-1192189,MgO,4.0482
mp-1192532,SiH2,4.0154
mp-1193749,RbMgPO4,4.0706
mp-1195447,Rb8Th(MoO4)6,4.004300000000001
mp-1195570,Th(SeO3)2,4.0184999999999995
mp-1195712,K4H6W2S2O9,4.0712
mp-1195934,Na2Zn3H4(Se2O7)2,4.0729999999999995
mp-1196297,CsRb2Sb4F15,4.0177000000000005
mp-1196931,Rb2BiPWO8,4.0005999999999995
mp-1197011,As2S2O9,4.073
mp-1197240,Ca4Ce2TiSi4(BO6)4,4.046
mp-1197331,HoAl3(H3C)12,4.0129
mp-1197939,CaCO3,4.0435
mp-1198234,Li3V(H4O3)4,4.0368
mp-1198292,NdH24C4I3(NO)8,4.0261
mp-1199136,K2SmMoPO8,4.0200000000000005
mp-1199670,Rb5Er(MoO4)4,4.0262
mp-1199829,AlH15Br3N5,4.0056
mp-1200024,FeBP(HO3)2,4.0538
mp-1200203,Bi2(S2O7)3,4.0165999999999995
mp-1200428,KMgAs(H6O5)2,4.0137
mp-1201060,NaSrPH18SO12,4.0609
mp-1201415,Li3V(H4O3)4,4.070600000000001
mp-1201798,HS2N(ClO2)2,4.0751
mp-1202324,P2H10SN6,4.021
mp-1203117,InP3Pb2O11,4.041
mp-1204107,Al4Fe2Si5O18,4.0573
mp-1204839,H6C3S3NCl3O5,4.0119
mp-1205018,BaIn2(P2O7)2,4.0041
mp-1205629,Cs3FeF6,4.0291
mp-1208442,Ta2CdO6,4.0203
mp-1208627,SrHo2Al2O7,4.0723
mp-1209488,Rb2PrBr5,4.0347
mp-1209500,Rb2NdBr5,4.0354
mp-1209582,Rb2Ni2(SO4)3,4.0383
mp-1210004,Rb4Zn(MoO4)3,4.068899999999999
mp-1210617,MgTlCl3,4.0421000000000005
mp-1210934,LiZnInF6,4.0502
mp-1211028,Na6TeP6(H3O5)6,4.0377
mp-1211421,KLu(MoO4)2,4.0182
mp-1211527,KMn(PO3)3,4.049799999999999
mp-1211567,La4AsBrO8,4.0752
mp-1211655,KH2CN5,4.0187
mp-1211730,K2SmBr5,4.0416
mp-1211877,K2PH3SeO8,4.0697
mp-1212200,K2LiP3HO9,4.0025
mp-1213076,CsLu(MoO4)2,4.0118
mp-1213179,CsGa(SO4)2,4.010199999999999
mp-1213231,CsY(MoO4)2,4.0159
mp-1213652,CsH2CN5,4.0636
mp-1213682,CsEr(MoO4)2,4.0283999999999995
mp-1214114,CSNCl2F5,4.0568
mp-1214118,C2SF6,4.0254
mp-1214153,Ca2P3Pb3ClO12,4.0681
mp-1214404,BaNiP2O7,4.0108
mp-1214624,Ba2Mn2ClF7,4.0481
mp-1214635,BaNaFeF6,4.0533
mp-1216160,Y4Zr3O12,4.0322
mp-1216759,TlBiF4,4.071
mp-1217508,TbSc3(BO3)4,4.0755
mp-1218075,SrCaZnSi2O7,4.0134
mp-1218203,SrLaMgTaO6,4.0675
mp-1218527,SrCaDy4Be2O10,4.0606
mp-1218791,Sr9In(PO4)7,4.0448
mp-1220837,NaHSeO3,4.0485999999999995
mp-1221257,Na3YSi2O7,4.0043
mp-1222184,MgAl6FeSi2(BO9)2,4.059800000000001
mp-1223327,La2CO5,4.0322
mp-1223743,Li2Zr4As3(PO8)3,4.0056
mp-1227185,CaY2BeO5,4.0155
mp-1227507,Ca2AlH10BrO8,4.0717
mp-1227818,BaSr11Al4(O4F)4,4.0628
mp-1227826,Ca4Al5CrSi6(HO13)2,4.0184999999999995
mp-1227994,BaAlSi5N7O2,4.046600000000001
mp-1228193,Ba3Sr(MoO4)4,4.019
mp-1228883,Ba2Pb(SO4)3,4.0554
mp-1229148,Ba13B30(PbO30)2,4.0522
mp-1229316,Ca33In4P28Pb3O112,4.0615000000000006
mp-12427,Sr2TaGaO6,4.0487
mp-1266342,Na11Zr8Si7P5O48,4.0625
mp-12932,TbTaO4,4.018
mp-12933,TmTaO4,4.069
mp-13039,Tm2C(NO)2,4.0346
mp-13042,NaSr3TaO6,4.002700000000001
mp-1427,Lu2O3,4.0310999999999995
mp-15171,K2MgSiO4,4.0028999999999995
mp-1541522,BiPO4,4.0039
mp-1575286,Li2FeP2O7,4.0217
mp-1582,As2O3,4.0676000000000005
mp-1667139,NaLi2FePCO7,4.0154
mp-17275,SrY2O4,4.021
mp-17586,CdS2O7,4.036099999999999
mp-17863,Mn2Si(P2O7)2,4.0263
mp-17950,Nd2(WO4)3,4.0493
mp-18147,LiGaSiO4,4.052899999999999
mp-18215,SrFe3(P2O7)2,4.0312
mp-19054,BaMnCO3F2,4.061299999999999
mp-19219,Li3VO4,4.055400000000001
mp-19234,Ba2WO3F4,4.0458
mp-19479,Na5La(MoO4)4,4.0741000000000005
mp-19957,LaGeBO5,4.0275
mp-21634,Na2W2O7,4.0544
mp-2184,As2O3,4.0275
mp-21892,Al2PbO4,4.0403
mp-22898,KI,4.0433
mp-22909,ZnCl2,4.057
mp-22951,BaIF,4.0286
mp-23301,BiF3,4.0229
mp-23349,Bi(BO2)3,4.0085
mp-23392,K4CdCl6,4.0206
mp-23659,Na4Ga3Si3BrO12,4.0513
mp-23736,LiMgH3,4.043
mp-23860,SrHCl,4.0417
mp-23870,NaH,4.0702
mp-24108,RbCrH24(SO10)2,4.0499
mp-24117,CrFeH18(NF)6,4.02
mp-24120,CaAsH5O6,4.0552
mp-24165,Li2H2SeO5,4.0214
mp-24479,SrH2Br2O7,4.054
mp-24585,LiZnPH2O5,4.0276000000000005
mp-24732,MnH8SO8,4.0532
mp-24830,SiP3H29C10BrN,4.0491
mp-25393,Li2FePO4F,4.0618
mp-25446,Li3NiPCO7,4.0121
mp-25823,LiNi2(PO3)5,4.0085
mp-25991,Li2Ni3(P2O7)2,4.0306999999999995
mp-26271,Li2Sn(PO3)4,4.0623000000000005
mp-26649,Li2SnP2O7,4.0616
mp-27069,Li3Bi2(PO4)3,4.0261
mp-27339,Sb2(SO4)3,4.018
mp-27425,Sr(HO)2,4.0386
mp-27739,As2S2O9,4.0652
mp-27758,AlTl2F5,4.071
mp-28022,Na6CdCl8,4.0214
mp-28074,RbPaF6,4.0043
mp-28276,K2PrBr5,4.0078
mp-28351,Dy2GeO5,4.0049
mp-28971,Rb2Si2O5,4.0403
mp-29304,Y2InCl7,4.0139
mp-29750,CsMgBr3,4.0464
mp-29927,Pb7(BrF6)2,4.063400000000001
mp-30051,Si3CCl7,4.0058
mp-30242,Mg4H2O5,4.006500000000001
mp-34381,H4IN,4.0129
mp-3444,ErTaO4,4.0463000000000005
mp-3472,PbSO4,4.054399999999999
mp-352,HfO2,4.0684
mp-36248,H4BrN,4.0523
mp-3667,P2S2O3,4.0083
mp-3677,MgSiN2,4.031000000000001
mp-3721,SrHfO3,4.0567
mp-39140,Na4Al3Si3HO13,4.025200000000001
mp-39215,Zn3GaB6PO12,4.0713
mp-40201,Na8Be3Si9(ClO12)2,4.0048
mp-40674,Sr5V3O12F,4.0003
mp-40963,Na2ZnP2O7,4.0183
mp-42583,Na8BeAl4Si7(ClO12)2,4.001399999999999
mp-4757,KReO4,4.031700000000001
mp-4917,LaAsO4,4.0024999999999995
mp-504179,LiFe(PO3)3,4.001799999999999
mp-504211,LiSn(PO3)3,4.066000000000001
mp-504371,LiNi6P7O24,4.040799999999999
mp-531793,MgAl2O4,4.020999999999999
mp-532424,KAl11O17,4.0426
mp-534773,Na2Al17Si11B7(H3O31)2,4.069699999999999
mp-5377,YTaO4,4.0311
mp-540946,LiReO4,4.022399999999999
mp-540950,Ba3SrTa2O9,4.033799999999999
mp-540996,NdGeBO5,4.0282
mp-541108,Cd2Si(P2O7)2,4.0752
mp-541190,Cs2LiVO4,4.0063
mp-541226,CsBrF6,4.019
mp-541282,KZr2(AsO4)3,4.0404
mp-541662,Cs3Fe2F9,4.0424
mp-541827,Ba2Zn7F18,4.0588999999999995
mp-545643,BaCO3,4.056900000000001
mp-5492,SrAl2O4,4.0564
mp-550593,Li4CO4,4.0077
mp-5525,KAlO2,4.0037
mp-553883,Ba3WCl2O5,4.0255
mp-554145,Na3SrPCO7,4.0693
mp-554240,NaCa4(BO3)3,4.0534
mp-554765,BaSb2F12,4.0411
mp-555394,SiO2,4.0656
mp-555417,K4Th(MoO4)4,4.0045
mp-555457,Te2S(O2F3)2,4.0117
mp-555574,Dy2O3,4.0275
mp-555606,Na10Be4Si4O17,4.024800000000001
mp-555607,K8Hf(MoO4)6,4.0372
mp-555971,ZnAs2C12(NF)12,4.0453
mp-556012,NaCSN,4.0390999999999995
mp-556018,LiBH15C5NO3,4.0222
mp-556075,SrDy2O4,4.0222999999999995
mp-556186,P2SN3Cl5O,4.0165
mp-556464,SiO2,4.0501000000000005
mp-556548,Bi(BO2)3,4.0679
mp-556631,KZrSnF7,4.0103
mp-556709,Na2ZrSiO5,4.005
mp-556761,Ba5As3ClO12,4.0054
mp-556814,LiNdGeO4,4.0585
mp-556819,Tl2Cd2(SO4)3,4.030900000000001
mp-556936,CsBa(BO2)3,4.0448
mp-557076,SiO2,4.0358
mp-557181,K3Na3(NO4)2,4.0481
mp-557399,KSnSO4F,4.0022
mp-557466,BiF3,4.0576
mp-557775,PSN(Cl2O)2,4.0738
mp-558067,Na8Hf(MoO4)6,4.048
mp-558490,Tb3Se2ClO8,4.0674
mp-5586,NaErO2,4.0546
mp-558629,Ba2ZnSi2O7,4.002800000000001
mp-558781,ScTaO4,4.027699999999999
mp-558844,SNClO,4.0563
mp-558853,AsC3N3F8,4.015
mp-559123,YSiNO2,4.0723
mp-559286,Na4Al3Ge3ClO12,4.0753
mp-559385,SrHo2O4,4.0717
mp-559436,Fe(BO2)2,4.0104
mp-559513,K2NClO3,4.0612
mp-559554,Li2TeO3,4.0144
mp-559704,PH9C3S2NClO4,4.0624
mp-560314,In2H10S3O17,4.0206
mp-560710,Cs2TlMoF6,4.0024
mp-560869,K3VO4,4.048500000000001
mp-560886,SrSi2O5,4.0548
mp-561058,Na3Ga(PO4)2,4.0408
mp-561189,Rb6Si10O23,4.0483
mp-561198,NaSr2CrF8,4.0386
mp-561230,K2BiPWO8,4.0680000000000005
mp-561326,LuSeO3F,4.0104
mp-561664,TeF4,4.0184
mp-565692,K3Bi5(PO4)6,4.0631
mp-567794,ZnH16C4(Br2N)2,4.0687
mp-568848,GaCl2,4.0288
mp-568937,Cs3Y2Br9,4.0443999999999996
mp-570418,YbI2,4.0076
mp-570538,NaN3,4.0526
mp-570587,CdH8C2NCl3,4.0526
mp-570857,Y(AlCl4)3,4.0351
mp-571124,Cs2KScCl6,4.0621
mp-571540,ZnCl2,4.0184999999999995
mp-573196,Cs3Li2Ga(MoO4)4,4.0242
mp-580554,CsLi3Br4,4.0021
mp-5985,HoTaO4,4.0381
mp-600189,MnH14C3NCl3O2,4.0385
mp-6067,Tl2Cd2(SO4)3,4.0064
mp-6089,BaZn2(PO4)2,4.042599999999999
mp-6247,Na3Li3Fe2F12,4.0681
mp-625415,Tb(HO)3,4.0489999999999995
mp-625455,NaH9O5,4.0002
mp-625632,H9BrO4,4.0408
mp-625733,La(HO)3,4.0093
mp-625801,Sr(H8O5)2,4.0014
mp-625803,Sr(H8O5)2,4.0124
mp-625998,LiHO,4.022
mp-626227,Ca(H8O5)2,4.0601
mp-626230,Ca(H8O5)2,4.061
mp-626260,Sr(H8O5)2,4.0035
mp-626264,Ba(H8O5)2,4.0538
mp-626267,Ca(H8O5)2,4.0115
mp-626268,Ba(H8O5)2,4.042199999999999
mp-626279,Ca(H8O5)2,4.0088
mp-626467,Al(HO)3,4.0194
mp-626552,Ca(H8O5)2,4.0045
mp-629015,BN,4.0020999999999995
mp-638261,La2GeO5,4.032399999999999
mp-638424,Sb2S2O9,4.0328
mp-640357,Al2SiO5,4.0708
mp-6404,BaCa2(PN2)6,4.0725999999999996
mp-642662,SrH2Cl2O,4.0428
mp-643158,PH8IN4,4.0191
mp-643243,Cs2H6Pt,4.0439
mp-643263,Na3VH6O7,4.0436000000000005
mp-6446,Ba3La2(BO3)4,4.0127
mp-6491,Na2ZnP2O7,4.0485
mp-6574,Er2C(NO)2,4.0129
mp-661,AlN,4.0536
mp-6693,CaZn(SiO3)2,4.0611
mp-672958,LiSb(PO3)4,4.0476
mp-673073,LiSbP2O7,4.0385
mp-675472,Al17(NO7)3,4.0191
mp-675682,Al11NO15,4.052200000000001
mp-6759,BaGa2(SiO4)2,4.009
mp-6760,Na3La9B8O27,4.015200000000001
mp-676020,BaCO3,4.0287
mp-676278,Ca2SiO4,4.052099999999999
mp-677193,Mg3BH2O5F,4.010199999999999
mp-677336,Na10Zr6Si7(PO18)2,4.0021
mp-684042,Li3Bi2(PO4)3,4.0073
mp-684082,LiSb(PO3)4,4.004099999999999
mp-690951,ErZr11Si11PO48,4.0268
mp-6949,InF3,4.028
mp-695074,KNa3Al4(SiO4)4,4.0625
mp-695133,CsMg4Al9(SiO4)9,4.0440000000000005
mp-695170,Nd3Al3Si3(NO6)2,4.004999999999999
mp-6964,NaTbO2,4.0064
mp-697222,Rb3LiZn2(MoO4)4,4.0278
mp-697575,Rb2ZnH4,4.060499999999999
mp-697767,LiMoP2O7,4.0674
mp-698018,LiAlSi2H2O7,4.0006
mp-705402,Li14Mn9(P2O7)8,4.0028
mp-707218,Ba3AlHO4,4.0412
mp-707961,KB3(H3O4)2,4.0494
mp-708961,BeH8SeO8,4.0571
mp-720804,K3Na3TeP6(HO4)6,4.017399999999999
mp-721582,H2S,4.0299
mp-721712,NaH4CSNO2,4.0039
mp-740752,BaRe2(H2O3)4,4.0226
mp-7492,LaBO3,4.0454
mp-752458,Dy3Y5O12,4.0053
mp-752466,Li2Mn2(CO3)3,4.0253
mp-752514,BaSrI4,4.0633
mp-752582,Li4VO4F,4.0558
mp-752671,Ba2SrI6,4.0581000000000005
mp-752672,NaDyO2,4.0417000000000005
mp-752826,Al2O3,4.0095
mp-753413,Ba2B2O5,4.0678
mp-754240,CaSm2O4,4.051
mp-754796,NaTmO2,4.0544
mp-754815,YBr3,4.0522
mp-754825,NaTmO2,4.072900000000001
mp-754987,Li3FePCO7,4.0615000000000006
mp-755311,NaLuO2,4.0586
mp-755434,Li2MnF4,4.0145
mp-755436,Na3VO4,4.0347
mp-755617,NaHoO2,4.0015
mp-756034,NaSmO2,4.0559
mp-756564,BaYCl5,4.023899999999999
mp-756705,YAlO3,4.0582
mp-757001,Y15TmO24,4.0571
mp-757074,BaCa2I6,4.0225
mp-757138,Li2Sn(PO3)4,4.0198
mp-757197,DyY3O6,4.0231
mp-757791,SmY15O24,4.0156
mp-757838,LiSn(PO3)3,4.0604000000000005
mp-758033,Y13Ho19O48,4.0092
mp-758184,LiFe(PO3)3,4.0098
mp-758609,Li2Fe(PO3)4,4.0093000000000005
mp-758876,Li2MnF4,4.0468
mp-758948,Cs2H6CO6,4.0516
mp-759189,MnAl2P2(HO)18,4.031499999999999
mp-759493,LiSbP2O7,4.0245
mp-7595,GeF2,4.0323
mp-759596,LiBiP2O7,4.0556
mp-759638,Y5Tm11O24,4.047700000000001
mp-759943,Al2O3,4.0645999999999995
mp-760139,Li2MnF4,4.0401
mp-7604,Mg3NF3,4.0633
mp-761038,Li5Ni2(PO4)3,4.0392
mp-762307,Y7HoO12,4.0498
mp-762329,Li7Sb2P7O24,4.0425
mp-762594,Na2In2P4H6O17,4.0732
mp-763098,Li2MnF4,4.0072
mp-764280,Li2MnF4,4.0152
mp-765476,Y13Ho3O24,4.0053
mp-766009,Y11Tm5O24,4.0603
mp-766175,RbInBP2HO9,4.0524
mp-766230,Rb2NaZn2H5(C2O7)2,4.0666
mp-766256,YTmO3,4.0595
mp-766267,Y7TmO12,4.0624
mp-766292,DyY7O12,4.0304
mp-766505,RbH2O2F,4.0306999999999995
mp-767431,Na3SrPCO7,4.052899999999999
mp-768152,NaZrPCO7,4.0071
mp-768234,La2HfO5,4.0102
mp-768488,Li3Mn(BO2)5,4.0052
mp-768633,Sr2LaCl7,4.0753
mp-769152,Sc(ClO4)3,4.0634
mp-769868,Li3BiH8O7,4.0167
mp-7703,DyTaO4,4.0271
mp-770413,LaHoO3,4.0237
mp-770648,Li8ZrO6,4.0226
mp-770720,Li4ZrO4,4.0617
mp-771043,Y2Zr2O7,4.0397
mp-771045,La2SiO5,4.0614
mp-771344,Li3FePCO7,4.010999999999999
mp-771387,Li6Mn2C4SO16,4.0745000000000005
mp-771828,Dy2Zr2O7,4.050199999999999
mp-771956,Tb2Zr2O7,4.0482
mp-772017,Ba3La2Cl12,4.0506
mp-772190,Li6Ti2O7,4.043
mp-772237,NaLi5Fe2P2(CO7)2,4.0463
mp-772274,NaLi5Fe2P2(CO7)2,4.0342
mp-772293,NaLi5Fe2P2(CO7)2,4.004300000000001
mp-772413,Al8SiO14,4.0639
mp-772633,SrSc2O4,4.038
mp-772636,NaLi5Fe2P2(CO7)2,4.023300000000001
mp-772760,Dy2Zr2O7,4.0492
mp-772780,K3BePCO7,4.0112
mp-772840,Sm2Ge2O7,4.0217
mp-775466,K2InSi4HO11,4.0312
mp-775757,HfO2,4.016500000000001
mp-776684,Li3FeF6,4.07
mp-777475,Li3FeF6,4.0089999999999995
mp-777481,Ba6YBr15,4.0156
mp-777485,Li2MnF4,4.0603
mp-777589,Li2MnF4,4.0321
mp-777730,Li3BiB8O15,4.0047
mp-777900,Li3FeF6,4.0707
mp-778991,LiMnP2HO7,4.020300000000001
mp-779001,Sr4Hf3O10,4.0727
mp-779358,Na3VO4,4.0157
mp-779590,La3PO7,4.062099999999999
mp-780526,Li2MnCSO7,4.0507
mp-780534,Rb(BH)5,4.0007
mp-780878,LiMn(PO3)3,4.0608
mp-780898,Li3Mn2(PO3)7,4.0165999999999995
mp-7811,SrSO4,4.030600000000001
mp-783907,LiMnP2HO7,4.0445
mp-8127,K2Mg(CO3)2,4.0703
mp-8409,KYO2,4.0569999999999995
mp-849228,LiFeF4,4.0037
mp-849432,NiH12S2(NO5)2,4.0285
mp-850407,LiMnP(H6O5)2,4.031499999999999
mp-850535,K2Mn3H10S4O21,4.0642
mp-850985,LiFeP2HO7,4.0655
mp-863419,LiNi(PO3)3,4.0023
mp-863420,Rb4H4C3O10,4.0445
mp-866310,Ba2YB2ClO6,4.0621
mp-867950,Li3Ni2(PO3)7,4.0731
mp-8759,Cs2ZrO3,4.0577000000000005
mp-8892,LiInF4,4.0226
mp-9783,Ba3(AsO4)2,4.0706999999999995
mp-989551,LiTl2InF6,4.041600000000001
mp-995216,RbSrSiHO4,4.0208
mp-997570,H6CIN,4.0743
mp-998620,RbSnF3,4.0427
mp-999498,N2,4.017399999999999
mvc-10614,BaCaCrF7,4.0355
mvc-1313,CaNiP2O7,4.0092
mvc-14207,CaBiF5,4.0621
mvc-14355,CaNiF4,4.0193
mvc-1725,CaSn(PO3)4,4.0299
mvc-7373,MgW2O7,4.0738
mp-1002083,CsKICl,4.1193
mp-1019747,K2Ca3Si3O10,4.136
mp-1019803,KAl9O14,4.1426
mp-1019894,La4B10O21,4.137700000000001
mp-1020628,SrGe(PO4)2,4.156499999999999
mp-1020629,SrMgP3N5O2,4.1352
mp-1020707,Rb2GeB4O9,4.0844
mp-1036528,LiMg14AlO16,4.0874999999999995
mp-1037964,CaMg30ZnO32,4.133900000000001
mp-1038009,SrCaMg30O32,4.1315
mp-1038234,KMg30AlO32,4.1121
mp-1039775,NaMg30BO32,4.1427
mp-1039794,NaMg30BO32,4.093400000000001
mp-1039932,NaLaMg30O32,4.1371
mp-1040052,LiMg30GaO32,4.1327
mp-1086666,Sr2TaInO6,4.0893999999999995
mp-1094131,Mg7Fe(SiO4)4,4.1537
mp-1101151,NaHoO2,4.0758
mp-1101467,SnP4O11,4.1249
mp-1101535,Li2MnP2O7,4.1029
mp-1103987,Mg2SiO4,4.0784
mp-1106183,LiAlS2,4.1051
mp-1111051,Na2AlTlF6,4.12
mp-1111074,Li3AsF6,4.1237
mp-1111207,K2RbScCl6,4.1025
mp-1111219,K2NaYBr6,4.094200000000001
mp-1111491,K3FeF6,4.1584
mp-1111662,K2LiSbF6,4.1336
mp-1112120,Cs2RbScCl6,4.088
mp-1112129,Cs2RbBiCl6,4.1439
mp-1112145,Cs2NaNdBr6,4.1567
mp-1112146,Cs2NaPrBr6,4.1445
mp-1112309,CsK2ScCl6,4.1206000000000005
mp-1112513,Cs2RbSbF6,4.0755
mp-1112966,Cs3ScCl6,4.116099999999999
mp-1112979,Cs3BiCl6,4.1328
mp-1112997,Cs2NaAlCl6,4.128699999999999
mp-1113006,Cs2LiSbF6,4.1361
mp-1113402,CsRb2ScCl6,4.1402
mp-1113413,CsRb2BiF6,4.1451
mp-1114496,Rb3FeF6,4.1317
mp-1114619,Rb3BiCl6,4.146
mp-1114665,Rb3ScCl6,4.1083
mp-1147619,Li3YBr6,4.1434
mp-11607,Si3N4,4.0968
mp-1173861,Na3Mg4InSi8(O11F)2,4.095
mp-1176610,LiNi(PO3)3,4.1067
mp-1177101,Li5FeOF5,4.1165
mp-1178156,K2AsPCO7,4.1143
mp-1178457,CsLiSO4,4.1219
mp-1178523,BaLaCl5,4.1582
mp-1179353,Sr(H8O5)2,4.0931
mp-1183115,AcAlO3,4.1024
mp-1183864,CdSn2H12(OF)6,4.115
mp-1187025,SmAlO3,4.1152
mp-1188970,Cs2CdFe(CN)6,4.1578
mp-1192358,PrMoO4F,4.1265
mp-1192530,CsPPbO4,4.1136
mp-1192562,NdMoO4F,4.099600000000001
mp-1192905,KNaTe(HO)6,4.1052
mp-1193408,KInBP2HO9,4.1217999999999995
mp-1193607,CsCaH2N9O,4.1049999999999995
mp-1193866,YbPH5CO7,4.0786
mp-1194260,As2H6CO6,4.087899999999999
mp-1194629,CsSc(SeO3)2,4.1344
mp-1195014,GeC4(BrF5)2,4.1155
mp-1195039,Ba2Zn2TeP2O11,4.101
mp-1195057,K3Ba3Li2Al4B6O20F,4.0961
mp-1195090,CsY(SeO3)2,4.0998
mp-1195186,RbLa2C6N6ClO6,4.134600000000001
mp-1195275,RbH3CN2O,4.1476999999999995
mp-1195448,CsSb(SO4)2,4.0866
mp-1195606,K2Zn3(SeO3)4,4.1389000000000005
mp-1195757,Li2Sn(H5O4)2,4.1447
mp-1196152,YB3(H6N)4,4.0868
mp-1196392,LiBH5N,4.138
mp-1196739,K2SnH2OF6,4.1531
mp-1197768,Ba2LiAl(CN2)4,4.1281
mp-1198167,Na2H14CO10,4.1517
mp-1198182,CaH12S2O9,4.1318
mp-1198385,Bi2B8O15,4.086
mp-1199110,SiH9C3N2Cl3,4.0832
mp-1199436,Zn(H3C)2,4.1572
mp-1199536,SnMoH6(CO2)2,4.1048
mp-1200224,CsPSO2,4.075799999999999
mp-1200495,Cs2Cd2(MoO4)3,4.1415
mp-1200531,MnH44C12N8(ClO5)2,4.0859
mp-1200866,Na2TiSi4H4O13,4.1217
mp-1201090,Si5H42(C7N)2,4.0818
mp-1201545,K2LaCl5,4.1486
mp-1202034,Be3As2H10(NO5)2,4.0849
mp-1202098,K2Mg2(MoO4)3,4.1171
mp-1202890,K2B2Se3O10,4.1305
mp-1203079,NaLiB2(H5N)2,4.0876
mp-1203138,Sc3B5O12,4.089600000000001
mp-1203274,Ni(CO)4,4.1141000000000005
mp-1203661,KRb2CrF6,4.1515
mp-1204048,B2H26C8N20Cl2O,4.1011999999999995
mp-1208108,Tm4Al2O9,4.1325
mp-1208758,Sr3Li6Ta2O11,4.1061000000000005
mp-1208969,Sm4Al2O9,4.1343000000000005
mp-1209213,RbGa(SO4)2,4.121499999999999
mp-1209227,RbCaBr3,4.1415999999999995
mp-1209467,RbAlBr4,4.0947
mp-1209518,Rb2SmBr5,4.0789
mp-1209610,Rb2LaCl5,4.1585
mp-1210143,Rb2Cd2(MoO4)3,4.1126
mp-1210155,NaAlBr4,4.1505
mp-1210464,Na2Nd2B2O7,4.1561
mp-1210699,Mn2Be3Tl2F12,4.1194
mp-1211746,KCd(PO3)3,4.1295
mp-1212178,InH9(SO6)2,4.1579
mp-1212327,Ho4Al2O9,4.1148
mp-1212993,Dy4Al2O9,4.1428
mp-1213724,Cs2LaCl5,4.1149
mp-1216122,Y4Zr3O12,4.1478
mp-1216736,TlP(HO2)2,4.0987
mp-1218632,Sr4BiP3O13,4.0869
mp-1218677,SrCa3Zr16(PO4)24,4.152100000000001
mp-1220764,NaHfScO4,4.105600000000001
mp-1221038,NaNi2H3(SO5)2,4.125
mp-1221117,NaCaGaSi2O7,4.1404
mp-1221133,NaCa3AlFe3(SiO3)8,4.1547
mp-1221224,Na3BrCl2,4.1498
mp-1221263,Na4Ca7MnSi12(HO9)4,4.113300000000001
mp-1221274,Na4Ca7MnSi12(HO9)4,4.1314
mp-1221674,Na2AsP(H4O5)2,4.0823
mp-1221862,Na4AsP(H15O11)2,4.1322
mp-1222195,Mg3Fe(SiO4)2,4.1547
mp-1222289,LiTb(WO4)2,4.0817000000000005
mp-1222340,LiSm(WO4)2,4.152699999999999
mp-1222598,Li3AsO4,4.1513
mp-1222669,Li2IBr,4.1375
mp-1222825,Lu4Zr3O12,4.1179
mp-1223205,La5Si2BO13,4.1402
mp-1223363,KSO2F,4.154400000000001
mp-1223547,KMg3GaSi3(HO6)2,4.1202
mp-1223610,KGaFe(CN)6,4.1584
mp-1224176,KMg2As2H31O23,4.1563
mp-1224647,La3Nd11(Si3O13)3,4.1378
mp-1226455,Cs2GeB4O9,4.0987
mp-12271,MgSeO3,4.077500000000001
mp-1227854,Ca3Mg2Fe(CO3)6,4.090299999999999
mp-1227885,Ca2MgFe(CO3)4,4.131
mp-1228209,AlTlSiO4,4.0807
mp-1228326,BaPb2(SO4)3,4.1139
mp-1228616,BaPb2(SO4)3,4.1215
mp-1228639,Ba2LuB2ClO6,4.152200000000001
mp-1228884,CsH3(SeO3)2,4.1582
mp-1228939,Al3NO3,4.0912
mp-12295,Sr3La2(BO3)4,4.1563
mp-1245025,B2O3,4.0997
mp-1247890,Al2SiO5,4.1086
mp-1248272,CaAl2Si2(H2O5)2,4.1554
mp-1265911,Na10Zr6Si7(PO18)2,4.1294
mp-1279062,Fe(BO2)2,4.0966000000000005
mp-12862,LuTaO4,4.0899
mp-13067,Tm2O3,4.1535
mp-13068,Lu2O3,4.0883
mp-1317499,LiFe(PO3)3,4.1116
mp-14333,TaAlO4,4.0964
mp-14458,Na3Li3Cr2F12,4.0883
mp-1539038,AlTl2F5,4.0941
mp-1568793,MgFeP2O7,4.082599999999999
mp-1569680,MgFeP2O7,4.1162
mp-1571033,Li2Fe(CO3)2,4.1415
mp-16108,Cs3P6N11,4.087899999999999
mp-16695,K2ZnP2O7,4.1338
mp-16808,La2(WO4)3,4.1497
mp-17056,LiZnPO4,4.1074
mp-17799,KCdC3(NO)3,4.1322
mp-18449,K2ZrO3,4.0795