material_id,pretty_formula,band_gap
mp-675424,Ba2P2O7,4.581300000000001
mp-676653,Lu4Hf3O12,4.595599999999999
mp-677015,Na3Sm17Si12(O25F)2,4.6568000000000005
mp-6775,Na3Sr(BO2)5,4.5614
mp-6796,Ca5Si2CO11,4.6044
mp-6803,Sr3Pr2(BO3)4,4.5408
mp-6824,Na2ZrSi4O11,4.5954
mp-683990,Na3Mg(BO2)5,4.5905
mp-684497,LiBi(PO3)4,4.6457999999999995
mp-684506,LiBi(PO3)4,4.6455
mp-684991,NaCaScZn(SiO3)4,4.549300000000001
mp-685150,PbF2,4.5619
mp-685863,Li4SiO4,4.6556
mp-6880,Sb2OsC6(OF2)6,4.6355
mp-690684,Na2BH4ClO4,4.5975
mp-693393,Na13Ca7S12Cl2O48F,4.6346
mp-695119,Na3Zr2Si2PO12,4.550400000000001
mp-695996,BaH8C6(N3O4)2,4.5973999999999995
mp-696851,ZnH12C2S2(N3O4)2,4.6241
mp-697020,LiAlSiH2O5,4.6157
mp-697284,KH3SO6,4.6382
mp-698134,K2Na2Sb2H6O3F10,4.5685
mp-698325,BaH4(CO2)3,4.6538
mp-698366,ZnH10C4(N2O3)2,4.5823
mp-698454,DyH9C5(NO4)2,4.552099999999999
mp-698457,NaLiH4C2O5,4.6147
mp-699173,CsHIF7,4.6119
mp-699469,AlH15N5Cl3,4.6579999999999995
mp-7048,Al2O3,4.605400000000001
mp-706631,Na2B3HO6,4.6154
mp-706655,Na2B4H8O11,4.566
mp-706676,KPH3NO3,4.6065
mp-707453,K5NaP3(HO4)3,4.639799999999999
mp-707732,Na4ZnP6(HO2)12,4.565300000000001
mp-707840,Na2Si(H5O4)2,4.5925
mp-7079,CaZrSi2O7,4.5837
mp-707905,PH7N2O3,4.5884
mp-7100,LaOF,4.5672
mp-7137,LiTbO2,4.5527999999999995
mp-720583,Na3B3H2O7,4.544
mp-720710,K3H2S2NO7,4.6423
mp-722263,ZrH14C2(N4F3)2,4.625500000000001
mp-722866,SbH6CN3F4,4.5824
mp-733443,Ca7Si6H4CO23,4.5793
mp-735483,Na3LiMo2(H6O7)2,4.6221
mp-735488,RbNa3Mo2H18O17,4.5829
mp-735541,NiSn2H12(OF)6,4.6436
mp-738609,LiH20C8BrO4,4.6459
mp-738668,NaH3(CO2)2,4.6376
mp-740731,Al2H12(SeO5)3,4.6404
mp-743546,MnP3H10C3NO9,4.5773
mp-753056,HoBO3,4.5469
mp-753153,Dy2CO5,4.5436
mp-753611,PCl3O,4.5631
mp-753917,Y2HfO5,4.5808
mp-753995,YTmO3,4.585999999999999
mp-754004,TmHO2,4.5691
mp-754203,SmErO3,4.6071
mp-755083,BaYCl5,4.5812
mp-755109,YErO3,4.5415
mp-755891,CsLiH4SO5,4.6222
mp-756402,YHO2,4.6435
mp-756469,DyLuO3,4.6339999999999995
mp-756762,TbTmO3,4.5702
mp-757333,Al12PbO19,4.545399999999999
mp-757376,KAl11O17,4.587400000000001
mp-758097,H6C2N4O,4.6117
mp-758284,ZnP2H7NO8,4.6439
mp-758527,K3ErSi3(HO5)2,4.6339999999999995
mp-758571,Al11TlO17,4.5853
mp-758957,As2HPbF13,4.5547
mp-758966,LiBi(PO3)4,4.629
mp-759181,LiMn(PO3)3,4.59
mp-759361,FeP4O11,4.6136
mp-759928,K3TbSi3(HO5)2,4.603999999999999
mp-760405,ErBO3,4.566700000000001
mp-760457,YBO3,4.599
mp-760755,KAl11O17,4.616899999999999
mp-761179,K2NiP4(HO2)8,4.545
mp-7651,ThSiO4,4.645999999999999
mp-765959,NaPH3C2N3O4,4.5964
mp-766204,ZnPH5C2N4O3,4.6201
mp-767240,CsPH4(NO)2,4.6071
mp-767462,Na2YPCO7,4.5832
mp-767535,NaHfPCO7,4.577
mp-767562,Na2LuPCO7,4.566400000000001
mp-768141,Na2DyPCO7,4.5453
mp-768193,Li2SmPCO7,4.6370000000000005
mp-768317,Dy2SiO5,4.5469
mp-768957,Ba3Y2Cl12,4.6195
mp-768965,BaYCl5,4.652
mp-768972,Ba3Y2Cl12,4.5881
mp-768973,Ba2YCl7,4.5621
mp-768983,Ba2YCl7,4.6338
mp-769005,Ba2YCl7,4.5822
mp-770472,HoLuO3,4.5874
mp-770811,Si2As2O7,4.652
mp-771338,La2P4O13,4.616
mp-771698,LaAlO3,4.570399999999999
mp-771898,Cs2SO4,4.5796
mp-772195,Dy3Al5O12,4.5685
mp-772778,KHfPCO7,4.5952
mp-774430,Li2MnF4,4.5969999999999995
mp-774742,Li3Sc2(PO4)3,4.6105
mp-774868,ZnP4O11,4.6270999999999995
mp-776076,BaSiO3,4.6059
mp-776084,BaSiO3,4.5424
mp-776439,SmTmO3,4.632099999999999
mp-777047,LiTmO2,4.6352
mp-783904,NiH20S2(NO7)2,4.6101
mp-8140,AsPO4,4.5923
mp-8380,K2Si4O9,4.6301
mp-850868,NbH8N2O2F5,4.5789
mp-866298,BaNaScSi2O7,4.5949
mp-866617,Cs2Sr2(CO3)3,4.6474
mp-867519,MoH18C5(NO)4,4.6578
mp-867602,Li4Mn(PO3)6,4.5722000000000005
mp-867616,Li2Ni(PO3)4,4.6334
mp-867704,LiNi(PO3)3,4.5473
mp-8723,AsF5,4.628
mp-8796,Sr2LiSc(B2O5)2,4.6287
mp-9172,Li4TiO4,4.5494
mp-9747,B4PbO7,4.5596000000000005
mp-975103,RbMgPO4,4.5457
mp-975622,Rb2Al2Si3O10,4.5845
mp-976726,LiDyO2,4.574
mp-984332,Rb2Sr2(CO3)3,4.6295
mp-9844,BaAl2B2O7,4.6502
mp-984550,CsGaH4,4.625299999999999
mp-985697,Ba3Si6(NO6)2,4.6093
mp-989523,Rb2NaAsF6,4.573200000000001
mp-989561,NaTl2GaF6,4.6115
mp-998615,CaTlF3,4.6512
mvc-14678,MgTiF6,4.6175999999999995
mvc-3430,MgBiF5,4.5785
mp-1018721,HfO2,4.675000000000001
mp-1019523,Ba3NaY3(Si3O10)2,4.6895999999999995
mp-1019557,BaS4O13,4.6929
mp-1019558,BaSr2Mg(SiO4)2,4.7774
mp-1019559,Ca2B2O5,4.68
mp-1019560,Ca2B2O5,4.7106
mp-1019605,Cs2Ba3(P2O7)2,4.7249
mp-1019745,K2Ca3Si3O10,4.7684999999999995
mp-1019793,K3La(PO4)2,4.6651
mp-1019968,LaZn(BO2)5,4.7136
mp-1020009,Li2Ca2Si2O7,4.737699999999999
mp-1020023,Li3AlSiO5,4.7222
mp-1020162,Na4Mg3P4O15,4.7313
mp-1020633,RbMgBO3,4.6632
mp-1020634,SrMgB2O5,4.6951
mp-1020647,Sr2LiBeB3O8,4.7198
mp-1020724,Na7Al4P9O32,4.7512
mp-1020725,Sr4Li2B12O23,4.684900000000001
mp-1025227,Rb2MgCl4,4.7375
mp-1078877,MgSi(HO2)2,4.7746
mp-1094103,NaMgAl3Si8(HO6)4,4.7221
mp-1097038,LiAl2H6BrO6,4.774900000000001
mp-1101169,Y3AlO6,4.767899999999999
mp-1101170,YLuO3,4.7425999999999995
mp-1101371,SmLuO3,4.7782
mp-1101395,Sm2(WO4)3,4.7044
mp-1102717,BaWO4,4.7696000000000005
mp-1111052,RbNa2GaF6,4.693
mp-1111151,K3YCl6,4.6897
mp-1111154,K3TmCl6,4.7088
mp-1111175,K3DyCl6,4.6863
mp-1111327,K3TbCl6,4.6741
mp-1111421,K3LuCl6,4.726
mp-1111493,K3ErCl6,4.7026
mp-1111567,K2ScTlF6,4.7378
mp-1112126,Cs2RbLaCl6,4.7798
mp-1112525,Cs2RbAlCl6,4.6799
mp-1112646,Cs3YCl6,4.7771
mp-1112650,Cs3SmCl6,4.7534
mp-1112652,Cs3LaCl6,4.7139999999999995
mp-1112964,Cs3TbCl6,4.7709
mp-1112971,Cs3PrCl6,4.7188
mp-1112975,Cs3ErCl6,4.7792
mp-1113044,Cs2KLaCl6,4.7276
mp-1113512,Cs3AlCl6,4.69
mp-1113517,Cs2KAsF6,4.6692
mp-1114331,Na3InF6,4.7181999999999995
mp-1114373,Rb2YTlF6,4.7165
mp-1114405,KRb2LaCl6,4.7632
mp-1114443,Rb2NaLaCl6,4.6622
mp-1114500,Rb3LuCl6,4.7484
mp-1114621,Rb3DyCl6,4.7176
mp-1114622,Rb3ErCl6,4.7341
mp-1114635,Rb3TbCl6,4.7116
mp-1114638,Rb3YCl6,4.7212
mp-1114653,KRb2AlCl6,4.6728
mp-1114666,Rb3TmCl6,4.7425
mp-11165,Na2MgPO4F,4.7395000000000005
mp-11166,BaZnCO3F2,4.778899999999999
mp-11189,Li2MgSiO4,4.677099999999999
mp-1180473,N2O,4.7431
mp-1180708,Na12B26O45,4.6601
mp-1181559,H5NO,4.7014
mp-1181688,Cs2K2B10O17,4.6715
mp-1181689,Cs3Ba4C3O9F5,4.7683
mp-1183981,Cs2MoO4,4.6603
mp-1189443,HNF2,4.7366
mp-1190296,RbMgCO3F,4.7114
mp-1190761,NaGaCl4,4.6711
mp-1190940,LiC2N3,4.7063
mp-1191101,KMgBO3,4.660900000000001
mp-1191353,RbGaH4,4.7781
mp-1192338,Na5Sm4Si4O16F,4.664
mp-1192997,CsFeP(H6O5)2,4.7549
mp-1194001,Pr4PClO8,4.7547
mp-1194160,BaHf(SiO3)3,4.6887
mp-1194344,Nd4PClO8,4.7736
mp-1194834,BaSc2Si3O10,4.7668
mp-1194836,BaC4(O2F3)2,4.7459
mp-1194872,Mg10Si3(O7F2)2,4.739
mp-1194897,Na2LuC2O6F,4.7738
mp-1195089,KMgAs3F18,4.6955
mp-1195142,Cs2ErSi6O14F,4.6876999999999995
mp-1195176,Ba4NaGa2B8(ClO6)3,4.750299999999999
mp-1195497,CdH7C3NO6,4.7526
mp-1195533,LiAlC16Cl12(OF6)4,4.679
mp-1195598,BaEr4Si5O17,4.776800000000001
mp-1195631,SbH3NF6,4.7005
mp-1195650,Na2CaH4(CO4)2,4.7399000000000004
mp-1195657,LiSb2F7,4.7264
mp-1195686,BaHo4Si5O17,4.766
mp-1195843,FeH8SO8,4.7581
mp-1195950,NaLaP2H4CO7,4.7157
mp-1196034,Pr3Si2BO10,4.7116
mp-1196460,ZnB3H3O7,4.6788
mp-1196827,K4LiH3(SO4)4,4.7492
mp-1196989,ZnP2(H4O5)2,4.7637
mp-1197100,Ca4Si3H2O11,4.6971
mp-1197226,KNaAl6Si6(HO6)4,4.7317
mp-1197457,RbBaSc(SiO3)3,4.6731
mp-1197775,Na3P3H5N3O7,4.7515
mp-1197973,KNaAl6Si6(HO6)4,4.7132000000000005
mp-1197987,Na3B6BrO10,4.7523
mp-1198123,AlH7C2SCl4,4.6652000000000005
mp-1198448,NaAl3Si3(HO6)2,4.6998
mp-1198491,Be2NiH20N2(O3F4)2,4.7533
mp-1198649,K9Y3Si12(O16F)2,4.7120999999999995
mp-1198688,Ca(AlH4)2,4.7192
mp-1198731,NaTb(SiO3)2,4.6957
mp-1198856,Rb2FeH12(SO7)2,4.749
mp-1199026,Tb4BClO7,4.751
mp-1199562,Na2TbPWO8,4.7785
mp-1200418,Na4Th(WO4)4,4.7106
mp-1200615,Li4Zn(PO4)2,4.685700000000001
mp-1200773,Li2B2H9N,4.664
mp-1200829,NaSbF6,4.778
mp-1201038,KNaAl6Si6(HO6)4,4.736800000000001
mp-1201047,Dy4BClO7,4.7517000000000005
mp-1201184,Ba3CCl4O3,4.6733
mp-1201418,Na2YPWO8,4.7466
mp-1201460,Ba5In3F19,4.7704
mp-1201547,Ho4BClO7,4.7673
mp-1201988,MgTl2H12(SO7)2,4.681
mp-1202104,KCa7Si3(O4F)3,4.707000000000001
mp-1202632,Tm4BClO7,4.7638
mp-1202819,Sr2B5HO10,4.7701
mp-1202901,Na2YHC2O7,4.6888000000000005
mp-1203800,Na2H4WO6,4.7454
mp-1203998,CaAl2Si3H6O13,4.7303
mp-1204422,MgP2H10(NO4)2,4.6602
mp-1204549,Er4BClO7,4.754200000000001
mp-1205072,KNa3Al12Si12(HO6)8,4.7097999999999995
mp-1205386,SrAl2(SiO4)2,4.691
mp-1205479,K2SbF5,4.7325
mp-1205541,NaScTl2F6,4.7641
mp-1205794,Rb3HoCl6,4.7245
mp-1206092,Cs3DyCl6,4.765499999999999
mp-1206199,K3HoCl6,4.7169
mp-1206492,Cs3HoCl6,4.7263
mp-1206641,KTl2GaF6,4.7739
mp-1208676,SrBrCl,4.7326999999999995
mp-1209047,RbSrCl3,4.6662
mp-1209122,RbTm(WO4)2,4.7609
mp-1209165,SbC2N2F5,4.7262
mp-1209269,RbLu(WO4)2,4.7686
mp-1209357,Rb3Y(PO4)2,4.718500000000001
mp-1209402,Rb3Ho(PO4)2,4.718299999999999
mp-1209433,Rb2YCl5,4.6754999999999995
mp-1209961,NaTbCl4,4.7459999999999996
mp-1210040,NaDyCl4,4.781
mp-1210126,NaSm(CO3)2,4.676
mp-1210138,NaNd(CO3)2,4.6713000000000005
mp-1210400,Na3LiTi2F12,4.7764
mp-1210579,Na2CaZrSi2O7F2,4.6788
mp-1210816,Na2Ca4YZrSi4(O5F)3,4.6895999999999995
mp-1210917,LuSnF7,4.7535
mp-1211079,LiTb6B3O14,4.7074
mp-1211233,LiDy6B3O14,4.7589999999999995
mp-1211468,Li6Er(BO3)3,4.7747
mp-1211903,K2NdCl5,4.7506
mp-1212176,HfTlF5,4.7669999999999995
mp-1212935,GaPbF5,4.7201
mp-1213193,CsEr(WO4)2,4.7319
mp-1213195,CsSbS(O2F)2,4.6602
mp-1213213,CsTm(WO4)2,4.7707
mp-1213783,Cs2YCl5,4.7534
mp-1214193,Ca(AlH4)2,4.7401
mp-1214207,CCl3,4.7139
mp-1214419,BaCa2Mg(SiO4)2,4.6865000000000006
mp-1214796,Cs2SbF5,4.7174
mp-1215134,AlP2H12N3O8,4.688899999999999
mp-12160,Li6Ho(BO3)3,4.7620000000000005
mp-1218195,SrNd4Si3O13,4.7051
mp-1220011,PNO,4.728400000000001
mp-1220843,Na8Al6Si6BrClO24,4.703600000000001
mp-1221134,NaCa2Mg5AlSi7(O11F)2,4.6714
mp-1221261,Na3CaSc3Zn(SiO3)8,4.778700000000001
mp-1221345,Na2PHO4,4.6692
mp-1221444,Na2BrClO6,4.6621999999999995
mp-1221784,Na10B18H6O35,4.7141
mp-1222228,Na14Mg9(P2O7)8,4.7192
mp-1222261,Mg3Al8Fe(Si5O18)2,4.7393
mp-1222377,Mg3ZnH24(CO3)8,4.7302
mp-1222553,LiAlSiO4,4.6982
mp-1222563,Li4Sc3In(SiO3)8,4.7412
mp-1222742,Li2MgSiO4,4.753699999999999
mp-1222849,Li2ScP2HO8,4.768999999999999
mp-12233,ZnB4O7,4.6602
mp-1223305,KZnH5(SO5)2,4.7696000000000005
mp-1223307,KRbCl2,4.7358
mp-1223435,KNaCaMg5Si8(O11F)2,4.667
mp-1223463,KCNO,4.6965
mp-1223613,KAlSi3O8,4.745900000000001
mp-1224461,H2CBrCl,4.7406
mp-1224622,GdZr3F15,4.7385
mp-1226125,CsSi2HO5,4.7017
mp-1227052,CaHF,4.7217
mp-1227097,CaScAlSiO6,4.6985
mp-1227106,CaMg3(SiO3)4,4.7
mp-1227614,Ca4Mg3Si8NiO24,4.734399999999999
mp-1227705,BaSrCaMg(SiO4)2,4.7432
mp-1227744,Ca3Mg5(SiO3)8,4.7721
mp-1228510,Ba2Sr3CaMg2(SiO4)4,4.7334
mp-1228542,Ba2Sr3CaMg2(SiO4)4,4.7427
mp-1244963,BeO,4.7507
mp-1245795,CsCN,4.7629
mp-1249626,NaAlSi2H2O7,4.725
mp-1252068,KAl11O17,4.6850000000000005
mp-13500,Sm3Si2BO10,4.7747
mp-13772,Li3Pr2(BO3)3,4.7083
mp-13791,BaNaNd(SiO3)3,4.7406
mp-13840,Ho3ScO6,4.7068
mp-14354,Rb2SrP2O7,4.712999999999999
mp-14388,Ho3Al5O12,4.6662
mp-14558,Ba2Mg(PO4)2,4.6983
mp-14704,Li6Y(BO3)3,4.7399
mp-14921,Zn4B6SeO12,4.733
mp-15003,Ca3HfSi2O9,4.6792
mp-15066,LiTmSiO4,4.7806
mp-15250,NaCd(PO3)3,4.7063999999999995
mp-15362,Li3Nd2(BO3)3,4.7404
mp-15438,ZnP4O11,4.7695
mp-15960,Li5AlO4,4.6925
mp-16432,Sr3(BO3)2,4.7
mp-16737,Na2BeB2O5,4.7299999999999995
mp-16903,SrSbF5,4.765499999999999
mp-16956,Na3Sc2(PO4)3,4.6894
mp-16969,Lu2SiO5,4.684699999999999
mp-17065,Ho2SiO5,4.7019
mp-17468,SrZrSi2O7,4.7098
mp-17636,K3Na(WO4)2,4.6674
mp-17718,CsKNa2Li12(SiO4)4,4.7301
mp-18099,BaSbF5,4.7524999999999995
mp-18130,Nd2Si2O7,4.673
mp-18944,Na5Y(WO4)4,4.7451
mp-19163,SrWO4,4.682
mp-22888,CaBr2,4.7449
mp-22906,CsBr,4.7786
mp-23058,NdClO,4.769299999999999
mp-23145,Na4Al3Si3ClO12,4.6975999999999996
mp-23184,BCl3,4.750299999999999
mp-23237,BiF3,4.6953000000000005
mp-23257,IF5,4.6815
mp-23416,Li2ZnCl4,4.6751000000000005
mp-23621,NaBi(PO3)4,4.7302
mp-23704,NaAlH4,4.6748
mp-23799,NaZnP2HO7,4.74
mp-23852,Na3H5(CO4)2,4.679600000000001
mp-24157,PH8N2O3F,4.7799
mp-24229,Na2CaH10C2O11,4.7715
mp-24369,Na2Si(H4O3)3,4.6955
mp-24502,ZnH2(SO4)2,4.6610000000000005
mp-24508,ZrH3NF4,4.7424
mp-24578,MgH10(SeO5)2,4.7346
mp-24708,ZnH8SO8,4.6714
mp-24761,RbGaBP2HO9,4.662599999999999
mp-26001,LiNi(PO3)3,4.742800000000001
mp-26165,Li2Ni(PO3)4,4.6635
mp-27189,Si3Cl8,4.7516
mp-27208,RbMgCl3,4.7517
mp-27211,KSb4F13,4.7279
mp-27277,PCl3O,4.6845
mp-27281,LiH3O2,4.7622
mp-27501,Cs2ThCl6,4.6873000000000005
mp-27653,LiAlH4,4.7794
mp-27984,PrClO,4.703200000000001
mp-28014,H5BrO2,4.7612000000000005
mp-28369,GeH3Cl,4.7582
mp-28555,RbSF5,4.7124
mp-28663,Mg14Si5O24,4.6791
mp-29176,Na8Si7O18,4.7226
mp-29232,ZrPb3F10,4.6951
mp-29409,CIF7,4.7037
mp-29655,B2H4C,4.7225
mp-29961,Sr(C2N3)2,4.6774000000000004
mp-30089,CsH3O2,4.7233
mp-30094,H2CN2,4.7101
mp-30273,AcClO,4.7379999999999995
mp-30529,B5H11,4.747199999999999
mp-31476,CsHC2,4.66
mp-3379,K2SbF5,4.7799
mp-3384,Er3Al5O12,4.745900000000001
mp-3520,Y2SiO5,4.7661
mp-35555,LaOF,4.764
mp-3629,Y2(WO4)3,4.7613
mp-38035,SrCO3,4.712700000000001
mp-3859,Ca2B2O5,4.7423
mp-3881,BaZnF4,4.668699999999999
mp-3970,K2TiF6,4.7348
mp-4078,La2SO6,4.722099999999999
mp-4180,Ca2SiO4,4.6781
mp-4428,CaSiO3,4.733600000000001
mp-5224,BaSi2O5,4.7498
mp-532704,K2YHf(PO4)3,4.7808
mp-5391,Mg2SiO4,4.687299999999999
mp-542656,Cs2AlP3O10,4.6667
mp-542819,Cs3B12H12Br,4.7566
mp-542864,Na2NiH12(SO7)2,4.7695
mp-548658,RbPO3,4.7278
mp-550498,Li4CO4,4.6606000000000005
mp-550751,BaBeSiO4,4.7692
mp-551740,Li4CO4,4.6749
mp-553939,CaCO3,4.718299999999999
mp-554012,SClO2F,4.6795
mp-554187,SnH21C7S4N(O3F)2,4.7614
mp-554420,Y2SiO5,4.7357000000000005
mp-554433,KAl(SiO3)2,4.755000000000001
mp-554591,K2Ca2(CO3)3,4.7367
mp-554641,Sr3Mg(SiO4)2,4.6846
mp-554673,KZnB(PO4)2,4.7598
mp-554732,RbSbS(O2F)2,4.7109
mp-554752,RbLi7(SiO4)2,4.7207
mp-554964,Pr7BP2O17,4.6935
mp-555237,PrSClO4,4.705400000000001
mp-555488,Na5AlP2(O4F)2,4.6654
mp-555489,LiY6B3O14,4.665100000000001
mp-555608,Na3Sc2(PO4)3,4.715199999999999
mp-555911,TlAsF6,4.6652
mp-555983,Er2SiO5,4.758699999999999
mp-556038,Ba3In(BO2)9,4.7251
mp-556356,Na2SrAl4(SiO4)4,4.7044999999999995
mp-556478,SrH2(CO2)2,4.6952
mp-556703,Ba3Mg(SiO4)2,4.6934000000000005
mp-556801,Na3B6PO13,4.7576
mp-556820,Sm3Si2Cl5O6,4.7234
mp-556858,Al2P3H9(CO3)3,4.7341
mp-556860,Y2Si2O7,4.6704
mp-557467,Li4Ca(BO3)2,4.7775
mp-557716,NaNi(PO3)3,4.7105
mp-557747,K2SrP2O7,4.7677
mp-557756,Li4Zn(PO4)2,4.676
mp-557758,LaMg(BO2)5,4.7446
mp-557777,K2ScSi4O10F,4.7522
mp-557802,K2Be(Si2O5)2,4.6976
mp-557803,MgSiO3,4.6751000000000005
mp-557825,H4CN2O,4.7105
mp-558102,KLiSi2O5,4.7214
mp-558106,SnH58C16S4(N11O9)2,4.6716
mp-558669,SrAl2B2O7,4.7089
mp-558713,LiAlSiO4,4.7093
mp-558930,Zn(PO3)2,4.7158999999999995
mp-559139,H8C3N2O,4.694800000000001
mp-559419,Ba9LiSi10C(ClO4)7,4.6715
mp-559557,Cs2Na2B10O17,4.7115
mp-559608,K3NdSi7O17,4.7165
mp-559627,LiP3PbO9,4.6983999999999995
mp-559670,KBaYSi2O7,4.6817
mp-559759,CaAlBO4,4.7004
mp-559873,CSNO2F3,4.708
mp-560039,NaY(SiO3)2,4.7098
mp-560163,Ca4Si2O7F2,4.678100000000001
mp-560210,CaH2(CO2)2,4.6966
mp-560303,BaCa2C2(O3F)2,4.7463999999999995
mp-560310,SbPOF8,4.6921
mp-560511,CaH2(CO2)2,4.6613999999999995
mp-560593,Dy3Si2Cl5O6,4.7646
mp-561086,CaSiO3,4.703
mp-561290,K2BiF5,4.7645
mp-562920,CsAl(SiO3)2,4.7668
mp-5639,Mg2SiO4,4.7454
mp-567716,AlTlCl4,4.773499999999999
mp-568157,H8C2BrN,4.7409
mp-5707,CsAsF4,4.6884999999999994
mp-571166,CaBr2,4.6838
mp-573909,Hg(CN)2,4.7513000000000005
mp-5834,MgSiO3,4.6994
mp-606711,Cs3LiCl4,4.7641
mp-623837,As(CN)3,4.728
mp-625055,AlHO2,4.6729
mp-625211,LiH3O2,4.726
mp-625320,Al(HO)3,4.6653
mp-625378,NaH9O5,4.7414000000000005
mp-625762,Al(HO)3,4.7326999999999995
mp-625924,H5NO,4.7576
mp-626136,H3ClO5,4.753299999999999
mp-626161,Al5HO8,4.7661
mp-626219,H5ClO6,4.7683
mp-626414,Al(HO)3,4.7659
mp-626497,Al(HO)3,4.7127
mp-626504,Al(HO)3,4.762499999999999
mp-643579,SbH3OF6,4.6973
mp-643666,InH5NOF4,4.7592
mp-643941,CaAl2Si(HO2)4,4.693199999999999
mp-648053,NaPO3,4.7502
mp-648072,NaPO3,4.7413
mp-649595,CaMgSiO4,4.696
mp-6532,CaAl2(SiO4)2,4.7227
mp-6565,Li3Sc2(PO4)3,4.7366
mp-6568,BaCa(CO3)2,4.7138
mp-657344,Na12B26O45,4.683599999999999
mp-675634,KBi2F7,4.7189
mp-676467,Na3Al2P2O8F3,4.7401
mp-676934,KCaNd(PO4)2,4.7394
mp-676991,NaAlSi2H2O7,4.7534
mp-677121,KBaAl3Si5O16,4.7135
mp-677138,RbPHO3F,4.7536
mp-677384,NaLaH2S2O9,4.6972000000000005
mp-680374,KAlSiO4,4.6996
mp-684093,LiBi(PO3)4,4.7433000000000005
mp-684704,H2O,4.7636
mp-686310,BaNa2Al4(SiO4)4,4.7576
mp-686484,LiCa9Mg(PO4)7,4.7063
mp-686540,Na3Al2P2O8F3,4.769400000000001
mp-6875,BaNa2Al4(SiO4)4,4.735799999999999
mp-6891,Sb2RuC6(OF2)6,4.762700000000001
mp-690851,BaH2(CO2)2,4.6916
mp-690914,KNaMg5(Si2O5)6,4.7418000000000005
mp-694935,K3LiMg4(Si2O5)6,4.7657
mp-696089,ZnH20S2(NO7)2,4.6783
mp-696130,Li10Ge(PO6)2,4.7586
mp-696156,Ca3Si2(H3O5)2,4.7568
mp-697701,LaP3H8O7,4.7793
mp-697960,Ba2Na2B10H2O19,4.7012
mp-698397,SnH24C6N2(OF3)2,4.7277000000000005
mp-699937,K2Mn2Be3F12,4.7164
mp-703305,Na2PHO4,4.7631
mp-703476,P2H16N4O7,4.7241
mp-706617,Na2AlSi3HO9,4.6781999999999995
mp-706627,ZnH6C2(NO)4,4.684900000000001
mp-706979,PH6N3O,4.682600000000001
mp-707195,KSiHO3,4.7723
mp-707343,ZrH12C2(NF)6,4.7771
mp-707424,Al2H12(SeO5)3,4.7445
mp-707960,ZnH12C2(N3Cl2)2,4.6932
mp-720296,Na3B5H4O11,4.6917
mp-720658,Cs3Mg3In(PO3)12,4.665699999999999
mp-720802,Na6HfH8S5O24,4.6625
mp-720853,Na2PH5O6,4.7242999999999995
mp-721249,Li10Ge(PO6)2,4.7524999999999995
mp-721463,K2P2H2O7,4.7602
mp-721617,KMgP(H6O5)2,4.7556
mp-721697,CsNa2H4Cl3O2,4.7539
mp-722977,Na2Si(H3O2)6,4.7458
mp-7238,NdBO3,4.7415
mp-729560,Sr20P12Br(O16F)3,4.7268
mp-733610,H7C3N3O5,4.7568
mp-738618,NdH32C8N4Cl7,4.7306
mp-738670,H5C2NO3,4.7707
mp-738718,Na5P3H48C4N(O9F)3,4.6701999999999995
mp-7405,SmAlO3,4.773999999999999
mp-740735,P2H10N2O7,4.7105
mp-746343,NiH44C12N8(ClO5)2,4.6971
mp-752405,Dy2SiO5,4.715999999999999
mp-752762,Li2MnF4,4.7022
mp-754145,TbLuO3,4.6812
mp-755225,Li8ZrO6,4.7626
mp-755543,HoHO2,4.7585
mp-755717,SmHoO3,4.6877
mp-756597,Li2HfO3,4.699
mp-757145,SmH2ClO2,4.7226
mp-757836,BeH2SeO4,4.7645
mp-757963,K2MgH8(CO5)2,4.7113
mp-758329,YbCO3,4.7207
mp-758453,Na2P2H4N2O5,4.6627
mp-758655,H8C2BrN,4.667
mp-759289,LiBi(PO3)4,4.7014
mp-759344,P3H30N7O12,4.7385
mp-759603,H9CN5Cl2,4.6867
mp-759779,FeP4O11,4.7684
mp-760253,Li3MnF5,4.7283
mp-766262,H20C3(N2O5)2,4.7189
mp-766387,RbAl11O17,4.7303999999999995
mp-766468,Li6Ca3MnC6(O9F)2,4.7271
mp-768455,Lu2(WO4)3,4.7686
mp-768870,Ca(ClO3)2,4.7209
mp-768890,Li4B2O5,4.7812
mp-768954,Ba2YCl7,4.7105999999999995
mp-769122,Li4Sb2H6O3F10,4.6695
mp-770516,Tb2(WO4)3,4.7339
mp-772226,Tm2(WO4)3,4.7516
mp-772295,TmClO,4.7217
mp-772412,MgSiO3,4.772199999999999
mp-772566,Ho2(WO4)3,4.722300000000001
mp-773008,Er2(WO4)3,4.7395
mp-776332,Na(BH)5,4.7322
mp-777422,DyHO2,4.7409
mp-777883,Ba6YCl15,4.6931
mp-780003,La2P4O13,4.7539
mp-780361,La2P4O13,4.777299999999999
mp-780667,CaSb2H2F14,4.6943
mp-781992,PH8N4Cl,4.7618
mp-8230,Zn(PO3)2,4.6737
mp-849786,ZnP2H15C4NO8,4.7495
mp-851118,KNa2LiZr2(Si2O5)6,4.7587
mp-8586,InBF4,4.6622
mp-861504,PrBO3,4.6713000000000005
mp-863358,KAl11O17,4.674899999999999
mp-865466,TiH8(NF3)2,4.673500000000001
mp-866662,K5La4Si4O16F,4.6605
mp-867657,LiNi(PO3)3,4.660299999999999
mp-8873,LiGeBO4,4.7012
mp-8945,YSnF7,4.7737
mp-9488,SmOF,4.6628
mp-9646,La(PO3)3,4.665500000000001
mp-985585,Li3ClO,4.6814
mp-998155,RbSrCl3,4.6611
mp-998297,CsSrBr3,4.6964
mvc-10589,BaMgMoF7,4.7417
mvc-14834,CaTiF6,4.7129
mvc-9844,Ba2YNi2F11,4.6917
mp-1019086,CN2,4.7919
mp-1019518,Ba2CaSi4(BO7)2,4.8767
mp-1019525,Ba3ZnB5PO14,4.8472
mp-1019546,BaY4Si5O17,4.8123
mp-1019551,BaNa2Mg(PO4)2,4.8791
mp-1019708,CsBaLiP2O7,4.8877999999999995
mp-1019746,K2Ca4Si8O21,4.878
mp-1019791,K2Zn(PO3)4,4.858099999999999
mp-1019794,K3LiP2O7,4.877000000000001
mp-1019808,KBe2B3O7,4.8329
mp-1020164,Na3LiP2O7,4.8774
mp-1020621,RbBe2B3O7,4.864000000000001
mp-1020637,Sr3BeB6O13,4.7946
mp-10517,LiScP2O7,4.7851
mp-10572,NaPN2,4.867700000000001
mp-1071541,YbBr2,4.8283000000000005
mp-1071820,SiO2,4.7998
mp-1079918,CaCO3,4.8098
mp-1095315,BaWO4,4.839700000000001
mp-1095467,Tm2Si2O7,4.7966999999999995
mp-1096989,H6CNCl,4.900399999999999
mp-1097061,CaTlF3,4.8393
mp-1105350,H3CSNOF2,4.8047
mp-1105530,KZnB(H2Cl)2,4.885
mp-1111077,Li3InF6,4.8781
mp-1111223,K2NaSmCl6,4.8914
mp-1111227,K2NaPrCl6,4.8130999999999995