material_id,pretty_formula,band_gap
mp-4929,KBF4,7.943200000000001
mp-5046,BeSO4,7.075399999999999
mp-5259,RbAlF4,6.9441999999999995
mp-540653,SrAlF5,6.9422999999999995
mp-540862,Ba2CaMgAl2F14,7.1835
mp-542451,Rb2NaAl3F12,7.142099999999999
mp-543044,BaLiAlF6,7.2936
mp-5540,SrB4O7,7.2966
mp-554899,CsAlF4,6.984
mp-554928,H12C3NF3,7.5181
mp-555026,AlF3,7.7689
mp-555144,BaAlF5,7.094
mp-555591,SrLiAlF6,7.1819
mp-555730,Na2Ca3Al2F14,7.1846
mp-555846,BaAlF5,7.204
mp-555865,Na2Sr7Al6F34,6.9475999999999996
mp-555932,RbEr3F10,7.282
mp-556020,Li3AlF6,7.915100000000001
mp-556106,SrB2F8,8.1454
mp-556237,KLiYF5,7.164
mp-556472,LiYF4,7.8233
mp-556906,Na3LiBe2F8,6.9875
mp-556934,KNaSiF6,6.9998000000000005
mp-556996,K2LiAlF6,7.2639
mp-557743,KCaAl2F9,7.1437
mp-557810,BaH6F8,7.5679
mp-558118,BeF2,8.0901
mp-558149,BF3,8.1577
mp-558430,BaB2F8,8.1632
mp-558597,NaLiY2F8,7.5214
mp-5588,BaSiF6,7.6536
mp-558826,KHoBeF6,7.4029
mp-558970,H16C3NF7,7.3689
mp-559400,BeF2,8.0776
mp-559721,KBCF6,7.1135
mp-559871,AlF3,7.5230999999999995
mp-560176,K2NaAl3F12,7.1641
mp-560518,RbLi2Be2F7,7.1785
mp-560570,Rb2NaAl6F21,7.004300000000001
mp-561300,H14C3NF5,7.5138
mp-561430,LiLuF4,7.7635000000000005
mp-561543,BeF2,7.9633
mp-561877,HoF3,7.9848
mp-562057,Cs2Ca2Be3F12,7.1052
mp-562542,Cs4NaHf3H2F19,7.102399999999999
mp-567365,Kr,7.1771
mp-568145,Ar,8.5061
mp-568584,N2,7.0247
mp-581403,K3Na4Si3BF22,6.9803
mp-601774,H14C4NF3,7.115600000000001
mp-606604,CsLi2F3,7.0402
mp-612118,Kr,7.1828
mp-6134,LiCaAlF6,7.6492
mp-614456,He,17.9023
mp-632172,H2,9.4428
mp-632250,H2,7.3872
mp-632291,H2,9.0012
mp-632672,LiHF2,8.3017
mp-632812,KH4F5,7.2714
mp-634659,H2,7.5517
mp-6591,SrLiAlF6,7.3219
mp-6604,Na2LiAlF6,7.2099
mp-662570,BaB2F8,7.875
mp-6711,Na3Li3Al2F12,7.0872
mp-675011,CsPF6,7.1646
mp-675161,NaYF4,7.207400000000001
mp-675569,KPF6,7.1312999999999995
mp-675778,NaY2F7,7.0374
mp-676049,KBF4,7.4561
mp-683945,KEr3F10,7.0219
mp-696379,BH3OF4,7.880699999999999
mp-696656,BH4O2F3,7.0839
mp-696736,RbBe2F5,7.302099999999999
mp-697120,BH3NF4,7.577299999999999
mp-698060,PHOF2,7.0027
mp-707009,BH2OF3,7.567699999999999
mp-707175,BeH6(NF2)2,7.1973
mp-707839,SiH14(O2F3)2,6.975
mp-708997,H13C3NF4,7.284
mp-7104,CsCaF3,7.2341
mp-717,B2O3,8.3669
mp-720391,BH4NF4,7.4821
mp-721851,BHO2,7.0739
mp-722832,PH3NF5,7.092600000000001
mp-723378,KAlH6(OF3)2,6.976699999999999
mp-730585,LiBH2OF4,7.1301
mp-7384,SmF3,7.8606
mp-752420,Ba3Y2F12,7.0439
mp-752484,YbB4O7,7.0014
mp-752674,BaY3F11,7.0887
mp-752675,BaYF5,7.2938
mp-754382,He,16.5964
mp-7599,BeO,7.345699999999999
mp-768222,BaY2F8,7.0203
mp-768240,BaY2F8,7.2732
mp-7693,BaTm2F8,7.2461
mp-777744,Ba2YF7,6.9627
mp-8039,AlF3,7.6926000000000005
mp-8398,CsYbF3,7.431
mp-8401,CsMgF3,7.094900000000001
mp-8402,RbMgF3,6.9632000000000005
mp-850274,H2,8.8621
mp-8511,PF5,7.1089
mp-861500,PrB2HF10,7.7553
mp-8836,CaAlF5,7.1538
mp-9143,LiPF6,7.63
mp-9371,ErF3,7.8677
mp-9726,SrBeF4,7.523999999999999
mp-972825,SiH8,7.3467
mp-973783,H2,8.8847
mp-974400,Kr,7.1803
mp-975590,Kr,7.18
mp-976347,Kr,7.1691
mp-977360,AcF3,7.4101
mp-977417,NdB2HF10,7.7874
mp-983357,H3F2,7.9086
mp-9839,K2LiAlF6,7.4651000000000005