material_id,pretty_formula,band_gap
mp-765567,Li4P5HO15,5.6941
mp-767214,Li2AlPCO7,5.7136
mp-768161,LiSiPCO7,5.764799999999999
mp-768166,Dy(ClO4)3,5.7623
mp-768453,Lu2(SO4)3,5.9635
mp-768503,Lu(PO3)3,5.741700000000001
mp-768800,Ho2(SO4)3,5.8704
mp-768978,Ho2(SO4)3,5.9222
mp-770754,Ho(ClO4)3,5.8111
mp-771106,Dy(PO3)3,5.7387999999999995
mp-771772,Lu4(B2O5)3,5.8298000000000005
mp-772186,Tm(ClO4)3,5.8007
mp-7723,NaAlF4,6.0413
mp-772781,Lu2B4O9,5.7822
mp-772919,Tm4(B2O5)3,5.6869
mp-7744,LiSO3F,5.8027
mp-778080,BaY3F11,5.8515
mp-7791,Li2GeF6,5.7562
mp-779108,Be2P2O7,6.0331
mp-7825,K2GeF6,5.8095
mp-7848,AlPO4,5.8209
mp-7949,Rb2GeF6,5.8114
mp-8056,Ca(BO2)2,6.020300000000001
mp-8059,SiO2,5.83
mp-8110,AlBO3,5.8626000000000005
mp-8217,Cs2GeF6,6.0356000000000005
mp-8354,LaF3,5.744699999999999
mp-8376,MgAlBO4,6.0217
mp-8416,BaCaGaF7,5.8537
mp-8455,CsF,5.938
mp-850414,LiB3P(HO3)3,5.988
mp-8537,S(OF)2,5.903700000000001
mp-8560,SF6,5.9139
mp-862539,BH6CN3F4,5.7343
mp-8644,BaF2,5.9301
mp-865095,NaGaH8(NF3)2,5.859
mp-8652,SF6,5.924300000000001
mp-866308,CaB2(H7N)2,5.694699999999999
mp-866684,RbTh3F13,5.8113
mp-867625,ErH(SO4)2,5.7551000000000005
mp-8812,Rb2GeF6,5.977399999999999
mp-905,LaF3,6.0244
mp-9308,Li4ZrF8,5.9638
mp-9512,SrAl2P2(O4F)2,5.796799999999999
mp-9515,Al2SiO5,5.7584
mp-9625,LiMgPO4,5.885
mp-975,SF6,5.921
mp-9816,GeF4,5.6825
mp-9841,Er2(SO4)3,5.899
mp-985293,Al(HO)3,5.8122
mp-989400,Rb2NaGaF6,5.889
mp-989531,Cs2KGaF6,6.0476
mp-989629,CsRb2GaF6,5.6917
mp-995221,H2CSO4,5.925
mp-995226,H2CO,6.0347
mp-1004528,CsB3PbF12,6.3125
mp-1017626,LiCaF3,6.5264999999999995
mp-1019509,B2S2O9,6.6983999999999995
mp-1019539,BaB2S3O13,6.1844
mp-1019741,HeSiO2,6.4897
mp-1019742,HeSiO2,6.5469
mp-1019804,KB(SO4)2,6.2377
mp-1020018,Li5B(SO4)4,6.108199999999999
mp-1020022,Li3B(PO4)2,6.1338
mp-1020025,LiB3O5,6.141400000000001
mp-1020026,LiBeBO3,6.087199999999999
mp-1020106,LiB(SO4)2,6.384399999999999
mp-10250,BaLiF3,6.5716
mp-1025456,CaZrF6,6.6537999999999995
mp-1025460,MgZrF6,6.5441
mp-1025509,ZrZnF6,6.1509
mp-1029,BaF2,6.6235
mp-1066989,H2,6.4533000000000005
mp-10694,ScF3,6.11
mp-1072956,MgF2,6.8692
mp-1077906,CO2,6.7907
mp-1078300,ScF3,6.105700000000001
mp-1078520,AlHO2,6.3594
mp-1079583,Rb2NaAlF6,6.7912
mp-1080679,LiTaF6,6.25
mp-1095079,K3AlF6,6.2999
mp-1095258,SrMgF4,6.879
mp-1097884,BeF2,6.2782
mp-11000,CaB4O7,6.441799999999999
mp-1101862,NaBH4,6.6407
mp-1102077,NaAlF4,6.6775
mp-1102227,CO2,6.4314
mp-1102433,MgF2,6.3012
mp-1105968,BH6N,6.2113
mp-1111056,Na2LiAlF6,6.5496
mp-1111079,K3ScF6,6.1606000000000005
mp-1111110,K2LiScF6,6.763299999999999
mp-1111112,K2LiGaF6,6.133
mp-1111291,Li3AlF6,6.4699
mp-1111653,K2LiYF6,6.6987
mp-1111925,K2LiNdF6,6.3728
mp-1111954,Cs2NaNdF6,6.915
mp-1111963,Cs2RbScF6,6.7074
mp-1111970,Cs2NaPrF6,6.7914
mp-1112569,Cs2NaAlF6,6.7033000000000005
mp-1112946,Cs2KPrF6,6.3205
mp-1112965,Cs3ScF6,6.4038
mp-1114347,KRb2AlF6,6.4284
mp-1114366,Rb2NaNdF6,6.2143
mp-1114424,Rb2LiNdF6,6.5983
mp-1114427,Rb2LiPrF6,6.5456
mp-1114432,Rb2LiYF6,6.8872
mp-1114452,Rb2NaPrF6,6.165100000000001
mp-1114456,Rb2NaScF6,6.9076
mp-1114490,Rb3AlF6,6.1238
mp-1114693,Rb3ScF6,6.2280999999999995
mp-1114702,Rb2LiScF6,6.7141
mp-1143773,HeSiO2,6.6290000000000004
mp-1172466,HeSiO2,6.498200000000001
mp-11725,CO2,6.4419
mp-1178515,BaYF5,6.45
mp-1178552,BaYF5,6.6579999999999995
mp-1178731,YB6(HO4)3,6.1572
mp-1179548,SiH12N2(O2F3)2,6.1612
mp-1179886,NaHF2,6.4931
mp-1180279,MgF2,6.3831
mp-1180553,Li4CO4,6.1222
mp-1182086,CO2,6.4503
mp-1185487,LuF3,6.3135
mp-1185521,Mg(BH4)2,6.2634
mp-11875,CO,6.1754999999999995
mp-1187558,TmF3,6.257300000000001
mp-1187761,Xe,6.2005
mp-1187769,Xe,6.2489
mp-1187777,Xe,6.152100000000001
mp-1188579,BH6N,6.1318
mp-1189018,Na5Hf2F13,6.668
mp-1189460,NaAlH8(NF3)2,6.4967
mp-1190080,BeCl2,6.5771
mp-1190680,Mg(BH4)2,6.7126
mp-1190685,CO2,6.7858
mp-1190699,CO2,6.6876
mp-1190838,RbLaF4,6.089499999999999
mp-1190869,NaBH4,6.3946000000000005
mp-1190942,Mg(BH4)2,6.6152
mp-1192133,LiBH4,6.371
mp-1192265,Mg(BH4)2,6.0748999999999995
mp-1193817,BH4C4N5,6.362400000000001
mp-1194338,NaBOF2,6.2989999999999995
mp-1195079,NaC2S2N(O2F3)2,6.184699999999999
mp-1196169,LiThF5,6.5431
mp-1196457,Li2B3O4F3,6.5796
mp-1196714,RbTh2F9,6.3752
mp-1196763,Mg(BH4)2,6.1448
mp-1196988,K5Li2PrF10,6.4743
mp-1197073,Ba5Al3F19,6.9088
mp-1197527,Na3Th10BeF45,6.2138
mp-1198592,BHO2,6.275799999999999
mp-1198717,KYF4,6.8924
mp-1198727,Ba2SrMg4F14,6.6082
mp-1199251,KB5(H2O5)2,6.1047
mp-1199781,Si2H2O3,6.7877
mp-1200209,Li2B6O9F2,6.283
mp-1200370,MgB6H28(C2O)2,6.0823
mp-1200811,Mg(BH4)2,6.7129
mp-1201270,KErF4,6.7859
mp-1201672,NaZn2(BH4)5,6.1594999999999995
mp-1201985,RbY(BH4)4,6.1335999999999995
mp-1202279,KHoF4,6.9055
mp-1202309,AlH4NF4,6.6655
mp-1202587,KHo2F7,6.9262999999999995
mp-1202753,KTmF4,6.8499
mp-1202941,Mg(BH4)2,6.1889
mp-1203669,ZrH24C8(NF3)2,6.5626
mp-1204247,LiC4OF9,6.074199999999999
mp-1204663,HfH14C4NOF5,6.6776
mp-1206808,Cs2LiAlF6,6.884
mp-1206962,LiTaF6,6.1512
mp-1208602,SrZrF6,6.2257
mp-1208619,SrLiGaF6,6.3542000000000005
mp-1208679,Sr5Al3F19,6.855
mp-1209116,RbSm3F10,6.9046
mp-1209185,RbPrF4,6.8593
mp-1209225,RbNdF4,6.8591
mp-1209282,Rb3ScF6,6.242
mp-1209379,RbCOF3,6.3691
mp-1209557,PrHf2F11,6.5611
mp-1209616,Rb2LaF5,6.3764
mp-1209683,Rb2Ca2Be3F12,6.8193
mp-1209719,Rb2Be3Ni2F12,6.149
mp-1209873,NdHf2F11,6.5675
mp-1210466,Na2MgScF7,6.1843
mp-1210835,Li2BeCl4,6.2881
mp-1211100,LiB3H8,6.1404
mp-1211227,LaHf2F11,6.6221
mp-1211260,KLaF4,6.2053
mp-1211350,KTh2F9,6.4419
mp-1211388,LaHfF7,6.3047
mp-1211395,KTaF6,6.2639
mp-1211492,KY2F7,6.7956
mp-1211521,KTb2F7,6.8223
mp-1211627,K3NaBe2F8,6.7354
mp-1211645,K3TmF6,6.4866
mp-1211654,K3DyF6,6.4296
mp-1211662,K3TbF6,6.4516
mp-1211665,K3LuF6,6.4716000000000005
mp-1211691,K2TbF5,6.8003
mp-1211695,K3ErF6,6.4990000000000006
mp-1211696,KCOF3,6.371
mp-1211714,K3HoF6,6.4882
mp-1211771,KDy2F7,6.8959
mp-1211860,K2NdF5,6.6774
mp-1211957,K2LuF5,6.7715
mp-1211978,K2Na2NdF7,6.1137
mp-1212010,K2DyF5,6.745800000000001
mp-1212022,K2HoF5,6.7781
mp-1212152,HoMg(BO2)5,6.1267
mp-1212188,K2Be3Ni2F12,6.1124
mp-1212987,DyMg(BO2)5,6.0872
mp-1213132,ErMg(BO2)5,6.1645
mp-1213386,CsLu3F10,6.7459
mp-1214538,BaNaGaF6,6.101100000000001
mp-1214751,Cs3ScF6,6.2612000000000005
mp-1219553,RbBH4,6.212400000000001
mp-1219581,RbMgAlF6,6.522
mp-1219622,RbLiMg(BH4)4,6.4935
mp-1220682,NaYF4,6.8704
mp-1220708,NaHoF4,6.7743
mp-1220897,NaSrMg2F7,6.3475
mp-1221036,NaErF4,6.8586
mp-1221090,NaCaMg2F7,6.4559999999999995
mp-1221258,Na2ThF6,6.5042
mp-1221446,N2O,6.2407
mp-1222386,LiBH4,6.2081
mp-1223317,KNaMg2F6,6.2895
mp-1223318,KNaMg2F6,6.3865
mp-1223410,KNa3Mg4F12,6.5673
mp-1223447,KLaF4,6.1491
mp-1223473,KBH4,6.329700000000001
mp-1223876,K2ThF6,6.6227
mp-1225893,CsHF2,6.3166
mp-1225922,CsMgAlF6,6.8485
mp-12262,CsBeF3,6.6615
mp-1228596,AlH12C4NF4,6.764799999999999
mp-1228955,Cs4Na2ScGaF12,6.352500000000001
mp-1229104,AlH15(OF)6,6.1289
mp-12350,SiO2,6.1955
mp-1238445,BeH8(NF2)2,6.5561
mp-1246093,NaCaLaF6,6.3797
mp-1249,MgF2,6.832
mp-1261261,YbAlF5,6.875
mp-12829,LiCaGaF6,6.405200000000001
mp-12948,NaMgF3,6.8434
mp-13230,K3YF6,6.699
mp-13588,CsB(CN)4,6.3801000000000005
mp-13590,LiB(CN)4,6.367999999999999
mp-13591,RbB(CN)4,6.3293
mp-13630,Rb3NaBe2F8,6.6257
mp-13799,K2NaYF6,6.2393
mp-13815,Rb2NaErF6,6.4978
mp-13816,Cs2NaErF6,6.864800000000001
mp-13925,Cs2NaYF6,6.8641000000000005
mp-13926,Rb2NaYF6,6.4477
mp-13946,Rb2ZrF6,6.6409
mp-13978,Rb2ThF6,6.286
mp-13997,RbAlF4,6.8327
mp-14023,Na3Li3Sc2F12,6.8685
mp-14128,K2HfF6,6.4674
mp-14193,K2ThF6,6.3926
mp-14638,Rb2LiGaF6,6.1326
mp-14734,CsCOF3,6.1247
mp-14866,CsAlF4,6.8969
mp-14926,Sr2ScF7,6.3653
mp-15079,Cs4KLiGa2F12,6.089700000000001
mp-15157,Cs2CaF4,6.0987
mp-15316,SrMgF4,6.3708
mp-15317,Rb2NaHoF6,6.4818999999999996
mp-15318,Rb2NaHoF6,6.5283999999999995
mp-1540904,KTaF6,6.2586
mp-15558,Li3GaF6,6.2874
mp-17077,K2YF5,6.8100000000000005
mp-17229,RbBe3ZnF9,6.2965
mp-17256,Rb2Hf3OF12,6.2834
mp-17434,K2SmF5,6.7623
mp-1746,MgF2,6.722799999999999
mp-17727,MnB2F8,6.4852
mp-17895,K3BeF5,6.3586
mp-17939,Na2SiF6,6.8772
mp-18509,KBe3ZnF9,6.253500000000001
mp-18549,Ba6Mg7F26,6.8163
mp-18704,CsLiBeF4,6.8735
mp-19931,Na2MgAlF7,6.6701999999999995
mp-20066,CO2,6.6402
mp-2064,RbF,6.2488
mp-22905,LiCl,6.3951
mp-22957,SrClF,6.2488
mp-23122,Li10B14Cl2O25,6.3849
mp-23267,BeCl2,6.342700000000001
mp-23683,H2CO,6.2978000000000005
mp-23739,SiH4,6.5933
mp-23750,SiH9C4F3,6.289
mp-23758,KNa(BH4)2,6.402100000000001
mp-23791,B(HO)3,6.2078
mp-23807,AlHO2,6.0892
mp-23902,PH3O4,6.2293
mp-23995,Al2P3(HO3)3,6.287599999999999
mp-24170,CaPH3O4,6.0782
mp-24357,H3CSO4F3,6.637499999999999
mp-24431,Si2H2O3,6.3739
mp-24452,CaP2H6O7,6.4567000000000005
mp-24614,BeH8(NF2)2,6.6480999999999995
mp-24618,AlH10N2OF5,6.1343
mp-24668,CsHF2,6.5123
mp-24810,NaBH4,6.2163
mp-27185,KTh6F25,6.4569
mp-27307,Na2ZrF6,6.2568
mp-27344,Be(BH4)2,6.1876
mp-27588,Be(PO3)2,6.2402999999999995
mp-27837,NaHF2,6.8217
mp-27990,B2H5,6.3475
mp-28473,CClF3,6.7176
mp-28642,Ba3AlF9,6.295800000000001
mp-28726,KYF4,6.9098
mp-28778,KScF4,6.0976
mp-29515,PH2F3,6.4670000000000005
mp-2955,NaMgF3,6.753900000000001
mp-29764,RbHF2,6.7
mp-3009,Rb2BeF4,6.6774000000000004
mp-30320,RbHfF5,6.8027999999999995
mp-306,B2O3,6.3387
mp-3081,BeAl2O4,6.117700000000001
mp-30942,Ba6Mg11F34,6.5478000000000005
mp-31030,KHo2F7,6.916099999999999
mp-31034,ThF4,6.536899999999999
mp-31043,H5NF2,6.9076
mp-31062,Y(PO3)3,6.1512
mp-31212,K2MgF4,6.4536999999999995
mp-31408,Al4(B2O5)3,6.072299999999999
mp-3269,NaTh2F9,6.2631
mp-3318,Na2BeF4,6.6651
mp-3361,Ba3Al2F12,6.7063999999999995
mp-34042,KY3F10,6.2847
mp-3416,Na3AlF6,6.725199999999999
mp-34578,Ba4Y3F17,6.652900000000001
mp-35769,Sr4Lu3F17,6.6581
mp-35986,Ba4Nd3F17,6.347799999999999
mp-36225,Na3ZrF7,6.1478
mp-3654,RbCaF3,6.7097999999999995
mp-3660,LiB3O5,6.3532
mp-36940,Mg(CN)2,6.163600000000001
mp-37722,KBH4,6.2677
mp-3855,Na2BeF4,6.7382
mp-38725,NaBH4,6.6478
mp-4002,Li2ZrF6,6.481
mp-4047,Cs2SiF6,6.8901
mp-4077,Cd(CN)2,6.1337
mp-4185,Na3ScF6,6.839500000000001
mp-4406,CaSO4,6.2142
mp-463,KF,6.0694
mp-4752,Na5Al3F14,6.5494
mp-4829,Na2ThF6,6.5168
mp-4950,KCaF3,6.4315999999999995
mp-5013,Cs2BeF4,6.6987000000000005
mp-505375,CsB(CF4)2,6.4986999999999995
mp-5185,K2BeF4,6.8508
mp-5347,KAlF4,6.8073999999999995
mp-540850,TlPF6,6.6195
mp-541162,Ba2Mg3F10,6.8917
mp-541298,KHfH2OF5,6.6561
mp-541813,RbMgF3,6.6647
mp-542219,Li2ZrF6,6.0728
mp-5476,Cs4Mg3F10,6.2813
mp-5479,RbAlF4,6.8971
mp-551848,Li4CO4,6.1035
mp-554023,Be2BO3F,6.3476
mp-554051,H6CNF,6.0701
mp-554491,SiC(ClF)3,6.1928
mp-554761,BaH2C4S4N2(O3F4)3,6.144
mp-554840,H13C4NF2,6.5393
mp-555002,LiEr2S2O8F3,6.0902
mp-555256,Li4CO4,6.072900000000001
mp-555272,Na5Zr2F13,6.096500000000001
mp-555299,SrC4S4N2(O2F3)4,6.2129
mp-555438,Ba3AlF9,6.4405
mp-555439,CsLi3F4,6.7392
mp-555463,RbTh3F13,6.457199999999999
mp-555507,Sr10Al2ClF25,6.4233
mp-555585,BaF2,6.855300000000001
mp-555711,H2CO,6.4308
mp-555888,C2S(OF)4,6.197900000000001
mp-556034,CO2,6.6883
mp-556068,SiO2,6.180999999999999
mp-556290,SrMgF4,6.2294
mp-556298,SiH12C2(NF3)2,6.85
mp-556738,BaZrF6,6.3304
mp-556741,KNaThF6,6.5767
mp-556863,Ba3AlF9,6.5801
mp-556974,BaB4O7,6.4712
mp-557793,Rb4LiZr3H2F19,6.1953
mp-557798,K5Li2NdF10,6.4524
mp-558105,LiB6O9F,6.4601
mp-558169,NaCaAlF6,6.835
mp-558186,RbLu3F10,6.7538
mp-558238,KEr2F7,6.9046
mp-558382,Li2SO4,6.2199
mp-558491,BaAlBO3F2,6.0749
mp-558769,Na3Li4Th6F31,6.3094
mp-558972,KBC4NF9,6.5149
mp-559092,ScF3,6.105
mp-559235,BH11C4NClF4,6.375
mp-559598,LiScF4,6.1268
mp-559648,KBC4NF9,6.8492999999999995
mp-559708,Li6ZrBeF12,6.1857
mp-559829,SiO2,6.106
mp-560030,CaF2,6.507899999999999
mp-560236,MgF2,6.287599999999999
mp-560673,NaPr2S2O8F3,6.1703
mp-560890,Li3ScF6,6.616
mp-560894,Li4Be3P3ClO12,6.2181999999999995
mp-561022,SrMgF4,6.6865000000000006
mp-561424,KAlF4,6.9087
mp-567989,BH8CN,6.1612
mp-568428,KNa(BH4)2,6.2752
mp-568439,KNa(BH4)2,6.394
mp-569030,BeCl2,6.3715
mp-569787,Al(BH4)3,6.2431
mp-570227,BeCl2,6.662800000000001
mp-570510,Xe,6.1937999999999995
mp-570747,N2,6.7967
mp-570752,H2,6.6941999999999995
mp-570974,BeCl2,6.514
mp-571156,Mg(BH4)2,6.0803
mp-571414,KNa(BH4)2,6.187
mp-571433,NaB(CN)4,6.5027
mp-572702,CsAlF4,6.4196
mp-573066,CsC2S2N(O2F3)2,6.2368999999999994
mp-574060,KB(CN)4,6.2398
mp-574928,CsPH3O3F,6.4348
mp-5926,KCaF3,6.6502
mp-600096,SiO2,6.108899999999999
mp-604245,BeH8(NF2)2,6.5456
mp-6058,K2NaScF6,6.7499
mp-6059,Cs2KYF6,6.6035
mp-611517,Xe,6.3661
mp-6204,Cs2NaScF6,6.8065999999999995
mp-6253,KLiBeF4,6.8545
mp-625475,H2SO4,6.0941
mp-6319,Na2MgAlF7,6.8185
mp-632282,NaHF2,6.677199999999999
mp-632296,HF,6.7187
mp-635425,AlF3,6.7775
mp-636952,LiCS(OF)3,6.5705
mp-638469,BaC2S2(OF)6,6.2008
mp-643277,SiH6(NF2)2,6.6965
mp-643749,KCaF3,6.5991
mp-644223,LiBH4,6.757099999999999
mp-644272,HCN,6.6576
mp-644385,HCN,6.8735
mp-644607,CO2,6.3187999999999995
mp-6500,KRb2ScF6,6.8563
mp-6528,Cs2NaAlF6,6.7438
mp-657176,YbBeF4,6.5464
mp-6586,K2NaAlF6,6.867699999999999
mp-6654,Cs2LiGaF6,6.1367
mp-667386,Na3Sr4Al5F26,6.915900000000001
mp-672233,N2,6.6385000000000005
mp-6738,Al6B5(O5F)3,6.114699999999999
mp-673801,Ca3NdF9,6.1416
mp-674459,NaErF4,6.8501
mp-675283,TlPF6,6.1556
mp-675562,K2ThF6,6.6631
mp-675681,Ba4Er3F17,6.491199999999999
mp-675798,NaHoF4,6.8599
mp-676002,Ba2PrF7,6.218299999999999
mp-676074,Na2ThF6,6.5873
mp-676512,Na3AlF6,6.5607999999999995
mp-677103,RbHF2,6.6749
mp-682,NaF,6.0951
mp-684652,BeF2,6.805
mp-685168,BeF2,6.5396
mp-6870,KBe2BO3F2,6.1000000000000005
mp-6899,CaBePO4F,6.111
mp-6902,KC2S2N(O2F3)2,6.2589
mp-690733,H2SO4,6.109999999999999
mp-6952,RbYbF3,6.8653
mp-695866,BeH8(NF2)2,6.2707
mp-696403,BHO2,6.0887
mp-696815,AlH4NF4,6.8202
mp-696961,BeH4NF3,6.074
mp-697278,NaCaAlH2OF6,6.6002
mp-7012,KRb2YF6,6.6263
mp-706514,H5CSO5F3,6.1312
mp-706608,KPH3O3F,6.6429
mp-706611,LiBeH4NF4,6.5775
mp-706612,BH5(NF2)2,6.2978
mp-707096,K2P3H7O9,6.462
mp-707466,HC2S2N(O2F3)2,6.4055
mp-707841,PH6NO3,6.2913
mp-709432,NaH3C4S4(OF)12,6.2957
mp-720432,Na2Ca9NdY5HoF41,6.1082
mp-722246,SiH10(O2F3)2,6.8781
mp-722997,NaCaAlH2OF6,6.6350999999999996
mp-723049,BeH4NF3,6.4393
mp-730190,H4NF,6.175
mp-740714,LiB5H2O9,6.0815
mp-753793,Ba2YF7,6.8982
mp-753990,BaY2F8,6.2842
mp-754920,BaYF5,6.6196
mp-755751,BaYF5,6.9117
mp-757176,BaYF5,6.4947
mp-759069,B(HO)3,6.0914
mp-7593,RbLiF2,6.1608
mp-7594,CsLiF2,6.278599999999999
mp-759722,SiH8(NF3)2,6.4741
mp-765294,SrP2(H2O3)2,6.4837
mp-767419,NaPH2OF6,6.1895
mp-768350,Ba2YF7,6.5535
mp-768355,BaYF5,6.8949
mp-768369,Ba2YF7,6.237500000000001
mp-7719,NaTm(SO4)2,6.1164000000000005
mp-776825,BaY3F11,6.1382
mp-777233,BaYF5,6.6724000000000006
mp-777258,Ba3YF9,6.227799999999999
mp-777978,BaYF5,6.6693999999999996
mp-778071,BaYF5,6.523300000000001
mp-778072,Ba2Y5F19,6.1194
mp-778079,BaYF5,6.4525
mp-778086,Ba3Y2F12,6.4213000000000005
mp-778102,BaYF5,6.661499999999999
mp-778377,Ba5Y3F19,6.0953
mp-778387,Ba5Y3F19,6.307
mp-7886,Cs2RbYF6,6.3513
mp-7903,Cs2ZrF6,6.6983
mp-8001,LiAlO2,6.1272
mp-8070,Li2BeSiO4,6.115
mp-8232,BaZrF6,6.2672
mp-8397,CsSrF3,6.4758000000000004
mp-8414,K2HfF6,6.8994
mp-8415,K2HfF6,6.8422
mp-8454,KF,6.641
mp-849748,NaMgP3(H4O5)2,6.4413
mp-8590,K2HfF6,6.7625
mp-862671,ThF4,6.129
mp-865934,YbF2,6.7331
mp-866665,LiMgB3(H9N)2,6.5113
mp-8861,Rb2MgF4,6.248799999999999
mp-8874,LiSiBO4,6.440099999999999
mp-8878,Sr(BO2)2,6.3781
mp-9348,KRb2ScF6,6.5228
mp-9349,KRb2ScF6,6.3561
mp-9486,K2AlF5,6.3282
mp-972256,Xe,6.337999999999999
mp-976181,NaBH4,6.5906
mp-978526,Si(H3C)4,6.1296
mp-979285,Xe,6.4618
mp-979286,Xe,6.396
mp-981,SrF2,6.7761
mp-985278,AcF3,6.207599999999999
mp-985782,H2C,6.43
mp-989618,Cs2RbGaF6,6.1147
mp-1009009,LiF,7.519500000000001
mp-10103,LiYbAlF6,7.692
mp-1021328,H4C,7.6375
mp-10464,CaF2,7.7821
mp-10474,NaPF6,7.025499999999999
mp-10492,Rb2SiF6,6.9955
mp-1077316,CO2,7.722999999999999
mp-1102083,BaMgF4,7.1394
mp-1102911,SrF2,7.010800000000001
mp-1103295,AlF3,7.4257
mp-1104135,CaH2F4,7.6467
mp-111,Ne,11.8025
mp-1112573,Cs2LiYF6,7.263199999999999
mp-1112576,Cs2LiNdF6,7.0493
mp-1113009,Cs2LiPrF6,6.993
mp-1114697,Rb2LiAlF6,7.246700000000001
mp-11347,TbF3,7.9484
mp-1138,LiF,8.7195
mp-11653,BPO4,6.998399999999999
mp-1167,CF4,9.0652
mp-1180580,LiHF2,8.5089
mp-1181188,H2,9.7306
mp-1181189,H2,8.1932
mp-1182902,AlF3,7.5019
mp-1185301,LiF,7.4777000000000005
mp-1188177,H2,7.396800000000001
mp-1188318,SiH8,7.0503
mp-1188485,Li2BF5,7.5668
mp-1191736,YF3,7.4295
mp-1191931,Na3CaMg3AlF14,6.9817
mp-1193222,LiMgAlF6,7.587
mp-1193269,Li2SiF6,8.0937
mp-1195185,K2NaAl3F12,7.1897
mp-1195827,SrLiAlF6,7.3222000000000005
mp-1196212,SiH6(NF3)2,7.1251999999999995
mp-1196282,CsH2F3,7.0169
mp-1196968,BH5(OF2)2,7.2918
mp-1197798,H2,8.2306
mp-1199844,BaBPF10,7.279
mp-1200608,SrAlF5,7.1404000000000005
mp-1201933,HCS(OF)3,6.946899999999999
mp-1202082,KAlF4,6.952999999999999
mp-1202400,KB(CF3)4,7.8748000000000005
mp-1202872,KBCNF3,7.0339
mp-1204071,Ba2Na2SrAl4F20,7.1175
mp-1205574,Cs2KScF6,6.986700000000001
mp-1209088,RbYBeF6,7.4103
mp-1209090,RbTmBeF6,7.515699999999999
mp-1209091,RbTb3F10,7.090199999999999
mp-1209211,RbDyBeF6,7.4741
mp-1209222,RbLuBeF6,7.577
mp-1209229,RbHoBeF6,7.4915
mp-1209268,RbErBeF6,7.484999999999999
mp-1209662,Rb2Mg2Be3F12,7.1687
mp-1209980,NaLiBeF4,7.3993
mp-1209986,NaLiEr2F8,7.2286
mp-1209991,NaLiLu2F8,7.2608
mp-1210003,NaLiHo2F8,7.3278
mp-1210006,NaLiTm2F8,7.3096
mp-1210818,LuF3,7.689900000000001
mp-1211247,KYBeF6,7.3678
mp-1211343,KNdF4,7.1656
mp-1211423,KLu3F10,7.123200000000001
mp-1211478,KHo3F10,7.0872
mp-1211506,KTm2F7,6.9435
mp-1211536,K2TmF5,7.1225000000000005
mp-1211612,KDy3F10,6.9834000000000005
mp-1211678,KBeF3,7.0635
mp-1212889,DyF3,7.871499999999999
mp-1213962,CaAl2F8,7.2379999999999995
mp-1214420,BaHfF6,7.132099999999999
mp-12146,CaB2F8,8.311399999999999
mp-1214962,BaLu2F8,7.287
mp-1220768,NaYF4,7.212999999999999
mp-1220915,NaSmF4,7.1527
mp-1220948,NaPrF4,7.036199999999999
mp-1220999,NaNdF4,7.082400000000001
mp-12240,Na2LiBe2F7,6.9665
mp-1228099,BaAlF5,7.144299999999999
mp-1228137,BaCaLu2F10,7.1204
mp-12309,Cs2NaAl3F12,7.0319
mp-12403,LiBF4,8.2555
mp-12431,BaBeF4,7.5597
mp-1251148,AlF3,7.4453
mp-1252764,AlF3,7.4424
mp-1256602,SiH14(O2F3)2,7.1996
mp-12626,K2SrBe2F8,7.173500000000001
mp-12803,BaEr2F8,7.2197000000000005
mp-13002,K2SiF6,7.2052
mp-1323,AlF3,7.3085
mp-13613,K2Mg2Be3F12,7.013199999999999
mp-13634,Cs2LiAl3F12,7.2292000000000005
mp-13947,Rb2HfF6,7.1228
mp-13948,Cs2HfF6,7.226100000000001
mp-14232,LiBO2,7.327400000000001
mp-14568,BaMgF4,6.9487000000000005
mp-14722,NaSrAlF6,6.9854
mp-15254,Li3AlF6,7.6904
mp-154,N2,7.4649
mp-15515,BaNaAlF6,6.981
mp-15549,K2LiAlF6,7.2704
mp-15951,BeF2,8.319600000000001
mp-16557,SrAlF5,7.2457
mp-16577,Li2CaHfF8,7.0392
mp-16795,CaAlF5,7.1329
mp-17371,K2ErF5,7.1114999999999995
mp-17697,KSmF4,7.1626
mp-1778,BeO,6.9752
mp-17838,KTb3F10,6.9502
mp-1794,BeO,8.2675
mp-17944,NaCaAlF6,7.1115
mp-18040,KPrF4,7.1433
mp-18065,BaCaAlF7,7.003
mp-1818,SiF4,7.9399999999999995
mp-18451,KEr3F10,7.1427
mp-18511,NdF3,7.8064
mp-18684,KPF6,7.2369
mp-23155,Ar,8.6048
mp-23156,He,17.775399999999998
mp-23158,He,17.6526
mp-23798,H4OF2,7.3775
mp-23846,KHF2,7.1196
mp-23907,H2,7.4955
mp-23931,LiPH2O3,6.9935
mp-2416,YF3,7.6509
mp-24160,BH3NF3,7.719
mp-24199,LiHF2,8.092600000000001
mp-24504,H2,9.391300000000001
mp-25,N2,7.4563999999999995
mp-254,NdF3,7.6262
mp-2542,BeO,7.463099999999999
mp-2651,PrF3,7.6007
mp-27192,CsBe2F5,7.1685
mp-2741,CaF2,7.2479
mp-27714,H3OF,7.0664
mp-27896,BF3,8.1393
mp-27925,KEr2F7,6.9711
mp-28003,H6OF4,7.398199999999999
mp-28123,H7NF4,7.490600000000001
mp-28124,H8NF5,7.456300000000001
mp-28125,H11NF8,7.2236
mp-28157,P(HO)3,7.0948
mp-2910,KAlF4,6.939500000000001
mp-29221,Ca2AlF7,7.1556
mp-29330,K2H5F7,7.1693
mp-29331,KH3F4,7.6164000000000005
mp-2943,KY3F10,6.9409
mp-29514,PHF4,7.5495
mp-29978,Sr5Al2F16,6.934900000000001
mp-30209,LiBH4,7.1131
mp-3032,RbBF4,7.7507
mp-3042,K2SiF6,7.2234
mp-34081,NaYF4,6.9274
mp-34284,NaNdF4,7.2092
mp-3448,KMgF3,6.9536999999999995
mp-34806,NaYF4,7.3406
mp-3521,NaBF4,8.0695
mp-3589,BPO4,7.2758
mp-3700,LiYF4,7.8366999999999996
mp-37267,NaYF4,7.3763000000000005
mp-3775,Na2SiF6,6.997
mp-3941,LiYF4,7.3177
mp-4057,CsBF4,7.6309000000000005
mp-4376,BaAlF5,7.2887
mp-4608,KPF6,7.2408
mp-4622,Li2BeF4,7.598599999999999
mp-468,AlF3,7.7239
mp-4693,RbAlF4,6.9564